 vasp.6.4.1 05Apr23 (build Aug 09 2024 10:19:00) complex                        
  
 executed on             LinuxIFC date 2024.08.21  19:18:28
 running   16 mpi-ranks, with    1 threads/rank, on    1 nodes
 distrk:  each k-point on   16 cores,    1 groups
 distr:  one band on NCORE=   1 cores,   16 groups


--------------------------------------------------------------------------------------------------------


 INCAR:
   ENCUT = 200
   PREC = High
   EDIFF = 1E-6
   ISMEAR = 1
   SIGMA = 0.1
   NBANDS = 25
   NELM = 100
   LWAVE = .FALSE.
   LCHARG = .FALSE.

 POTCAR:    PAW_PBE Mo 08Apr2002                  
 POTCAR:    PAW_PBE Mo 08Apr2002                  
   SHA256 =  e91eef5e768b52c866a1a7e0829a38a041f11142f3595800aaf3206086d6c164 Mo/POTCAR             
   COPYR  = (c) Copyright 08Apr2002 Georg Kresse                                                    
   COPYR  = This file is part of the software VASP. Any use, copying, and all other rights are regul
   COPYR  = If you do not have a valid VASP license, you may not use, copy or distribute this file. 
   VRHFIN =Mo: 4p5s4d                                                                               
   LEXCH  = PE                                                                                      
   EATOM  =   217.5176 eV,   15.9871 Ry                                                             
                                                                                                    
   TITEL  = PAW_PBE Mo 08Apr2002                                                                    
   LULTRA =        F    use ultrasoft PP ?                                                          
   IUNSCR =        1    unscreen: 0-lin 1-nonlin 2-no                                               
   RPACOR =    2.200    partial core radius                                                         
   POMASS =   95.940; ZVAL   =    6.000    mass and valenz                                          
   RCORE  =    2.750    outmost cutoff radius                                                       
   RWIGS  =    2.750; RWIGS  =    1.455    wigner-seitz radius (au A)                               
   ENMAX  =  224.584; ENMIN  =  168.438 eV                                                          
   RCLOC  =    2.111    cutoff for local pot                                                        
   LCOR   =        T    correct aug charges                                                         
   LPAW   =        T    paw PP                                                                      
   EAUG   =  345.278                                                                                
   DEXC   =    0.000                                                                                
   RMAX   =    2.821    core radius for proj-oper                                                   
   RAUG   =    1.300    factor for augmentation sphere                                              
   RDEP   =    2.815    radius for radial grids                                                     
   RDEPT  =    2.211    core radius for aug-charge                                                  
                                                                                                    
   Atomic configuration                                                                             
   12 entries                                                                                       
     n  l   j            E        occ.                                                              
     1  0  0.50    -19819.0341   2.0000                                                             
     2  0  0.50     -2799.0127   2.0000                                                             
     2  1  1.50     -2502.0276   6.0000                                                             
     3  0  0.50      -476.4448   2.0000                                                             
     3  1  1.50      -379.1496   6.0000                                                             
     3  2  2.50      -220.9367  10.0000                                                             
     4  0  0.50       -64.3378   2.0000                                                             
     4  1  1.50       -38.4773   6.0000                                                             
     4  2  2.50        -3.7535   5.0000                                                             
     5  0  0.50        -4.0862   1.0000                                                             
     5  1  0.50        -2.7701   0.0000                                                             
     4  3  2.50        -1.3606   0.0000                                                             
   Description                                                                                      
     l       E           TYP  RCUT    TYP  RCUT                                                     
     2     -3.7534765     23  2.500                                                                 
     2     -5.1140591     23  2.500                                                                 
     0     -4.0861560     23  2.600                                                                 
     0     13.6058260     23  2.600                                                                 
     1      5.4423304     23  2.750                                                                 
     1     27.2116520     23  2.750                                                                 
  local pseudopotential read in
  partial core-charges read in
  partial kinetic energy density read in
  atomic valenz-charges read in
  non local Contribution for L=           2  read in
    real space projection operators read in
  non local Contribution for L=           2  read in
    real space projection operators read in
  non local Contribution for L=           0  read in
    real space projection operators read in
  non local Contribution for L=           0  read in
    real space projection operators read in
  non local Contribution for L=           1  read in
    real space projection operators read in
  non local Contribution for L=           1  read in
    real space projection operators read in
    PAW grid and wavefunctions read in
 
   number of l-projection  operators is LMAX  =           6
   number of lm-projection operators is LMMAX =          18
 
  PAW_PBE Mo 08Apr2002                  :
 energy of atom  1       EATOM= -217.5176
 kinetic energy error for atom=    0.1013 (will be added to EATOM!!)
 
 
 POSCAR: Mo
  positions in cartesian coordinates
  No initial velocities read in
 exchange correlation table for  LEXCH =        8
   RHO(1)=    0.500       N(1)  =     2000
   RHO(2)=  100.500       N(2)  =     4000
 


--------------------------------------------------------------------------------------------------------


 ion  position               nearest neighbor table
   1  0.000  0.000  0.000-   2 2.74   2 2.74   2 2.74   2 2.74   2 2.74   2 2.74   2 2.74   2 2.74

   2  0.500  0.500  0.500-   1 2.74   1 2.74   1 2.74   1 2.74   1 2.74   1 2.74   1 2.74   1 2.74

 
  LATTYP: Found a simple cubic cell.
 ALAT       =     3.1676179400
  
  Lattice vectors:
  
 A1 = (   3.1676179400,   0.0000000000,   0.0000000000)
 A2 = (   0.0000000000,   3.1676179400,   0.0000000000)
 A3 = (   0.0000000000,   0.0000000000,   3.1676179400)


Analysis of symmetry for initial positions (statically):
=====================================================================
 Subroutine PRICEL returns following result:
 
  LATTYP: Found a body centered cubic cell.
 ALAT       =     3.1676179400
  
  Lattice vectors:
  
 A1 = (   1.5838089700,   1.5838089700,  -1.5838089700)
 A2 = (  -1.5838089700,   1.5838089700,   1.5838089700)
 A3 = (   1.5838089700,  -1.5838089700,   1.5838089700)
 
   2 primitive cells build up your supercell.
 

 Routine SETGRP: Setting up the symmetry group for a 
 simple cubic supercell.


 Subroutine GETGRP returns: Found 48 space group operations
 (whereof 48 operations were pure point group operations)
 out of a pool of 48 trial point group operations.


The static configuration has the point symmetry O_h .


Analysis of symmetry for dynamics (positions and initial velocities):
=====================================================================
 Subroutine PRICEL returns following result:
 
  LATTYP: Found a body centered cubic cell.
 ALAT       =     3.1676179400
  
  Lattice vectors:
  
 A1 = (   1.5838089700,   1.5838089700,  -1.5838089700)
 A2 = (  -1.5838089700,   1.5838089700,   1.5838089700)
 A3 = (   1.5838089700,  -1.5838089700,   1.5838089700)
 
   2 primitive cells build up your supercell.
 

 Routine SETGRP: Setting up the symmetry group for a 
 simple cubic supercell.


 Subroutine GETGRP returns: Found 48 space group operations
 (whereof 48 operations were pure point group operations)
 out of a pool of 48 trial point group operations.


The dynamic configuration has the point symmetry O_h .


 Subroutine INISYM returns: Found 48 space group operations
 (whereof 48 operations are pure point group operations),
 and found     2 'primitive' translations


----------------------------------------------------------------------------------------

                                     Primitive cell                                     

  volume of cell :      15.8916

  direct lattice vectors                    reciprocal lattice vectors
     1.583808970  1.583808970 -1.583808970     0.315694638  0.315694638  0.000000000
    -1.583808970  1.583808970  1.583808970    -0.000000000  0.315694638  0.315694638
     1.583808970 -1.583808970  1.583808970     0.315694638  0.000000000  0.315694638

  length of vectors
     2.743237606  2.743237606  2.743237606     0.446459639  0.446459639  0.446459639

  position of ions in fractional coordinates (direct lattice)
     0.000000000  0.000000000  0.000000000

  ion indices of the primitive-cell ions
   primitive index   ion index
                 1           1

----------------------------------------------------------------------------------------

 
 
 KPOINTS: Automatic generation                    

Automatic generation of k-mesh.
 Grid dimensions read from file:
 generate k-points for:   19   19   19

 Generating k-lattice:

  Cartesian coordinates                     Fractional coordinates (reciprocal lattice)
     0.016615507  0.000000000  0.000000000     0.052631579  0.000000000  0.000000000
     0.000000000  0.016615507  0.000000000     0.000000000  0.052631579  0.000000000
     0.000000000  0.000000000  0.016615507     0.000000000  0.000000000  0.052631579

  Length of vectors
     0.016615507  0.016615507  0.016615507

  Shift w.r.t. Gamma in fractional coordinates (k-lattice)
     0.000000000  0.000000000  0.000000000

 
 Subroutine IBZKPT returns following result:
 ===========================================
 
 Found    220 irreducible k-points:
 
 Following reciprocal coordinates:
            Coordinates               Weight
  0.000000  0.000000  0.000000      1.000000
  0.052632  0.000000  0.000000      6.000000
  0.105263  0.000000  0.000000      6.000000
  0.157895  0.000000  0.000000      6.000000
  0.210526  0.000000  0.000000      6.000000
  0.263158  0.000000  0.000000      6.000000
  0.315789  0.000000  0.000000      6.000000
  0.368421  0.000000  0.000000      6.000000
  0.421053  0.000000  0.000000      6.000000
  0.473684  0.000000  0.000000      6.000000
  0.052632  0.052632  0.000000     12.000000
  0.105263  0.052632  0.000000     24.000000
  0.157895  0.052632  0.000000     24.000000
  0.210526  0.052632  0.000000     24.000000
  0.263158  0.052632  0.000000     24.000000
  0.315789  0.052632  0.000000     24.000000
  0.368421  0.052632  0.000000     24.000000
  0.421053  0.052632  0.000000     24.000000
  0.473684  0.052632  0.000000     24.000000
  0.105263  0.105263  0.000000     12.000000
  0.157895  0.105263  0.000000     24.000000
  0.210526  0.105263  0.000000     24.000000
  0.263158  0.105263  0.000000     24.000000
  0.315789  0.105263  0.000000     24.000000
  0.368421  0.105263  0.000000     24.000000
  0.421053  0.105263  0.000000     24.000000
  0.473684  0.105263  0.000000     24.000000
  0.157895  0.157895  0.000000     12.000000
  0.210526  0.157895  0.000000     24.000000
  0.263158  0.157895  0.000000     24.000000
  0.315789  0.157895  0.000000     24.000000
  0.368421  0.157895  0.000000     24.000000
  0.421053  0.157895  0.000000     24.000000
  0.473684  0.157895  0.000000     24.000000
  0.210526  0.210526  0.000000     12.000000
  0.263158  0.210526  0.000000     24.000000
  0.315789  0.210526  0.000000     24.000000
  0.368421  0.210526  0.000000     24.000000
  0.421053  0.210526  0.000000     24.000000
  0.473684  0.210526  0.000000     24.000000
  0.263158  0.263158  0.000000     12.000000
  0.315789  0.263158  0.000000     24.000000
  0.368421  0.263158  0.000000     24.000000
  0.421053  0.263158  0.000000     24.000000
  0.473684  0.263158  0.000000     24.000000
  0.315789  0.315789  0.000000     12.000000
  0.368421  0.315789  0.000000     24.000000
  0.421053  0.315789  0.000000     24.000000
  0.473684  0.315789  0.000000     24.000000
  0.368421  0.368421  0.000000     12.000000
  0.421053  0.368421  0.000000     24.000000
  0.473684  0.368421  0.000000     24.000000
  0.421053  0.421053  0.000000     12.000000
  0.473684  0.421053  0.000000     24.000000
  0.473684  0.473684  0.000000     12.000000
  0.052632  0.052632  0.052632      8.000000
  0.105263  0.052632  0.052632     24.000000
  0.157895  0.052632  0.052632     24.000000
  0.210526  0.052632  0.052632     24.000000
  0.263158  0.052632  0.052632     24.000000
  0.315789  0.052632  0.052632     24.000000
  0.368421  0.052632  0.052632     24.000000
  0.421053  0.052632  0.052632     24.000000
  0.473684  0.052632  0.052632     24.000000
  0.105263  0.105263  0.052632     24.000000
  0.157895  0.105263  0.052632     48.000000
  0.210526  0.105263  0.052632     48.000000
  0.263158  0.105263  0.052632     48.000000
  0.315789  0.105263  0.052632     48.000000
  0.368421  0.105263  0.052632     48.000000
  0.421053  0.105263  0.052632     48.000000
  0.473684  0.105263  0.052632     48.000000
  0.157895  0.157895  0.052632     24.000000
  0.210526  0.157895  0.052632     48.000000
  0.263158  0.157895  0.052632     48.000000
  0.315789  0.157895  0.052632     48.000000
  0.368421  0.157895  0.052632     48.000000
  0.421053  0.157895  0.052632     48.000000
  0.473684  0.157895  0.052632     48.000000
  0.210526  0.210526  0.052632     24.000000
  0.263158  0.210526  0.052632     48.000000
  0.315789  0.210526  0.052632     48.000000
  0.368421  0.210526  0.052632     48.000000
  0.421053  0.210526  0.052632     48.000000
  0.473684  0.210526  0.052632     48.000000
  0.263158  0.263158  0.052632     24.000000
  0.315789  0.263158  0.052632     48.000000
  0.368421  0.263158  0.052632     48.000000
  0.421053  0.263158  0.052632     48.000000
  0.473684  0.263158  0.052632     48.000000
  0.315789  0.315789  0.052632     24.000000
  0.368421  0.315789  0.052632     48.000000
  0.421053  0.315789  0.052632     48.000000
  0.473684  0.315789  0.052632     48.000000
  0.368421  0.368421  0.052632     24.000000
  0.421053  0.368421  0.052632     48.000000
  0.473684  0.368421  0.052632     48.000000
  0.421053  0.421053  0.052632     24.000000
  0.473684  0.421053  0.052632     48.000000
  0.473684  0.473684  0.052632     24.000000
  0.105263  0.105263  0.105263      8.000000
  0.157895  0.105263  0.105263     24.000000
  0.210526  0.105263  0.105263     24.000000
  0.263158  0.105263  0.105263     24.000000
  0.315789  0.105263  0.105263     24.000000
  0.368421  0.105263  0.105263     24.000000
  0.421053  0.105263  0.105263     24.000000
  0.473684  0.105263  0.105263     24.000000
  0.157895  0.157895  0.105263     24.000000
  0.210526  0.157895  0.105263     48.000000
  0.263158  0.157895  0.105263     48.000000
  0.315789  0.157895  0.105263     48.000000
  0.368421  0.157895  0.105263     48.000000
  0.421053  0.157895  0.105263     48.000000
  0.473684  0.157895  0.105263     48.000000
  0.210526  0.210526  0.105263     24.000000
  0.263158  0.210526  0.105263     48.000000
  0.315789  0.210526  0.105263     48.000000
  0.368421  0.210526  0.105263     48.000000
  0.421053  0.210526  0.105263     48.000000
  0.473684  0.210526  0.105263     48.000000
  0.263158  0.263158  0.105263     24.000000
  0.315789  0.263158  0.105263     48.000000
  0.368421  0.263158  0.105263     48.000000
  0.421053  0.263158  0.105263     48.000000
  0.473684  0.263158  0.105263     48.000000
  0.315789  0.315789  0.105263     24.000000
  0.368421  0.315789  0.105263     48.000000
  0.421053  0.315789  0.105263     48.000000
  0.473684  0.315789  0.105263     48.000000
  0.368421  0.368421  0.105263     24.000000
  0.421053  0.368421  0.105263     48.000000
  0.473684  0.368421  0.105263     48.000000
  0.421053  0.421053  0.105263     24.000000
  0.473684  0.421053  0.105263     48.000000
  0.473684  0.473684  0.105263     24.000000
  0.157895  0.157895  0.157895      8.000000
  0.210526  0.157895  0.157895     24.000000
  0.263158  0.157895  0.157895     24.000000
  0.315789  0.157895  0.157895     24.000000
  0.368421  0.157895  0.157895     24.000000
  0.421053  0.157895  0.157895     24.000000
  0.473684  0.157895  0.157895     24.000000
  0.210526  0.210526  0.157895     24.000000
  0.263158  0.210526  0.157895     48.000000
  0.315789  0.210526  0.157895     48.000000
  0.368421  0.210526  0.157895     48.000000
  0.421053  0.210526  0.157895     48.000000
  0.473684  0.210526  0.157895     48.000000
  0.263158  0.263158  0.157895     24.000000
  0.315789  0.263158  0.157895     48.000000
  0.368421  0.263158  0.157895     48.000000
  0.421053  0.263158  0.157895     48.000000
  0.473684  0.263158  0.157895     48.000000
  0.315789  0.315789  0.157895     24.000000
  0.368421  0.315789  0.157895     48.000000
  0.421053  0.315789  0.157895     48.000000
  0.473684  0.315789  0.157895     48.000000
  0.368421  0.368421  0.157895     24.000000
  0.421053  0.368421  0.157895     48.000000
  0.473684  0.368421  0.157895     48.000000
  0.421053  0.421053  0.157895     24.000000
  0.473684  0.421053  0.157895     48.000000
  0.473684  0.473684  0.157895     24.000000
  0.210526  0.210526  0.210526      8.000000
  0.263158  0.210526  0.210526     24.000000
  0.315789  0.210526  0.210526     24.000000
  0.368421  0.210526  0.210526     24.000000
  0.421053  0.210526  0.210526     24.000000
  0.473684  0.210526  0.210526     24.000000
  0.263158  0.263158  0.210526     24.000000
  0.315789  0.263158  0.210526     48.000000
  0.368421  0.263158  0.210526     48.000000
  0.421053  0.263158  0.210526     48.000000
  0.473684  0.263158  0.210526     48.000000
  0.315789  0.315789  0.210526     24.000000
  0.368421  0.315789  0.210526     48.000000
  0.421053  0.315789  0.210526     48.000000
  0.473684  0.315789  0.210526     48.000000
  0.368421  0.368421  0.210526     24.000000
  0.421053  0.368421  0.210526     48.000000
  0.473684  0.368421  0.210526     48.000000
  0.421053  0.421053  0.210526     24.000000
  0.473684  0.421053  0.210526     48.000000
  0.473684  0.473684  0.210526     24.000000
  0.263158  0.263158  0.263158      8.000000
  0.315789  0.263158  0.263158     24.000000
  0.368421  0.263158  0.263158     24.000000
  0.421053  0.263158  0.263158     24.000000
  0.473684  0.263158  0.263158     24.000000
  0.315789  0.315789  0.263158     24.000000
  0.368421  0.315789  0.263158     48.000000
  0.421053  0.315789  0.263158     48.000000
  0.473684  0.315789  0.263158     48.000000
  0.368421  0.368421  0.263158     24.000000
  0.421053  0.368421  0.263158     48.000000
  0.473684  0.368421  0.263158     48.000000
  0.421053  0.421053  0.263158     24.000000
  0.473684  0.421053  0.263158     48.000000
  0.473684  0.473684  0.263158     24.000000
  0.315789  0.315789  0.315789      8.000000
  0.368421  0.315789  0.315789     24.000000
  0.421053  0.315789  0.315789     24.000000
  0.473684  0.315789  0.315789     24.000000
  0.368421  0.368421  0.315789     24.000000
  0.421053  0.368421  0.315789     48.000000
  0.473684  0.368421  0.315789     48.000000
  0.421053  0.421053  0.315789     24.000000
  0.473684  0.421053  0.315789     48.000000
  0.473684  0.473684  0.315789     24.000000
  0.368421  0.368421  0.368421      8.000000
  0.421053  0.368421  0.368421     24.000000
  0.473684  0.368421  0.368421     24.000000
  0.421053  0.421053  0.368421     24.000000
  0.473684  0.421053  0.368421     48.000000
  0.473684  0.473684  0.368421     24.000000
  0.421053  0.421053  0.421053      8.000000
  0.473684  0.421053  0.421053     24.000000
  0.473684  0.473684  0.421053     24.000000
  0.473684  0.473684  0.473684      8.000000
 
 Following cartesian coordinates:
            Coordinates               Weight
  0.000000  0.000000  0.000000      1.000000
  0.016616  0.000000  0.000000      6.000000
  0.033231  0.000000  0.000000      6.000000
  0.049847  0.000000  0.000000      6.000000
  0.066462  0.000000  0.000000      6.000000
  0.083078  0.000000  0.000000      6.000000
  0.099693  0.000000  0.000000      6.000000
  0.116309  0.000000  0.000000      6.000000
  0.132924  0.000000  0.000000      6.000000
  0.149540  0.000000  0.000000      6.000000
  0.016616  0.016616  0.000000     12.000000
  0.033231  0.016616  0.000000     24.000000
  0.049847  0.016616  0.000000     24.000000
  0.066462  0.016616  0.000000     24.000000
  0.083078  0.016616  0.000000     24.000000
  0.099693  0.016616  0.000000     24.000000
  0.116309  0.016616  0.000000     24.000000
  0.132924  0.016616  0.000000     24.000000
  0.149540  0.016616  0.000000     24.000000
  0.033231  0.033231  0.000000     12.000000
  0.049847  0.033231  0.000000     24.000000
  0.066462  0.033231  0.000000     24.000000
  0.083078  0.033231  0.000000     24.000000
  0.099693  0.033231  0.000000     24.000000
  0.116309  0.033231  0.000000     24.000000
  0.132924  0.033231  0.000000     24.000000
  0.149540  0.033231  0.000000     24.000000
  0.049847  0.049847  0.000000     12.000000
  0.066462  0.049847  0.000000     24.000000
  0.083078  0.049847  0.000000     24.000000
  0.099693  0.049847  0.000000     24.000000
  0.116309  0.049847  0.000000     24.000000
  0.132924  0.049847  0.000000     24.000000
  0.149540  0.049847  0.000000     24.000000
  0.066462  0.066462  0.000000     12.000000
  0.083078  0.066462  0.000000     24.000000
  0.099693  0.066462  0.000000     24.000000
  0.116309  0.066462  0.000000     24.000000
  0.132924  0.066462  0.000000     24.000000
  0.149540  0.066462  0.000000     24.000000
  0.083078  0.083078  0.000000     12.000000
  0.099693  0.083078  0.000000     24.000000
  0.116309  0.083078  0.000000     24.000000
  0.132924  0.083078  0.000000     24.000000
  0.149540  0.083078  0.000000     24.000000
  0.099693  0.099693  0.000000     12.000000
  0.116309  0.099693  0.000000     24.000000
  0.132924  0.099693  0.000000     24.000000
  0.149540  0.099693  0.000000     24.000000
  0.116309  0.116309  0.000000     12.000000
  0.132924  0.116309  0.000000     24.000000
  0.149540  0.116309  0.000000     24.000000
  0.132924  0.132924  0.000000     12.000000
  0.149540  0.132924  0.000000     24.000000
  0.149540  0.149540  0.000000     12.000000
  0.016616  0.016616  0.016616      8.000000
  0.033231  0.016616  0.016616     24.000000
  0.049847  0.016616  0.016616     24.000000
  0.066462  0.016616  0.016616     24.000000
  0.083078  0.016616  0.016616     24.000000
  0.099693  0.016616  0.016616     24.000000
  0.116309  0.016616  0.016616     24.000000
  0.132924  0.016616  0.016616     24.000000
  0.149540  0.016616  0.016616     24.000000
  0.033231  0.033231  0.016616     24.000000
  0.049847  0.033231  0.016616     48.000000
  0.066462  0.033231  0.016616     48.000000
  0.083078  0.033231  0.016616     48.000000
  0.099693  0.033231  0.016616     48.000000
  0.116309  0.033231  0.016616     48.000000
  0.132924  0.033231  0.016616     48.000000
  0.149540  0.033231  0.016616     48.000000
  0.049847  0.049847  0.016616     24.000000
  0.066462  0.049847  0.016616     48.000000
  0.083078  0.049847  0.016616     48.000000
  0.099693  0.049847  0.016616     48.000000
  0.116309  0.049847  0.016616     48.000000
  0.132924  0.049847  0.016616     48.000000
  0.149540  0.049847  0.016616     48.000000
  0.066462  0.066462  0.016616     24.000000
  0.083078  0.066462  0.016616     48.000000
  0.099693  0.066462  0.016616     48.000000
  0.116309  0.066462  0.016616     48.000000
  0.132924  0.066462  0.016616     48.000000
  0.149540  0.066462  0.016616     48.000000
  0.083078  0.083078  0.016616     24.000000
  0.099693  0.083078  0.016616     48.000000
  0.116309  0.083078  0.016616     48.000000
  0.132924  0.083078  0.016616     48.000000
  0.149540  0.083078  0.016616     48.000000
  0.099693  0.099693  0.016616     24.000000
  0.116309  0.099693  0.016616     48.000000
  0.132924  0.099693  0.016616     48.000000
  0.149540  0.099693  0.016616     48.000000
  0.116309  0.116309  0.016616     24.000000
  0.132924  0.116309  0.016616     48.000000
  0.149540  0.116309  0.016616     48.000000
  0.132924  0.132924  0.016616     24.000000
  0.149540  0.132924  0.016616     48.000000
  0.149540  0.149540  0.016616     24.000000
  0.033231  0.033231  0.033231      8.000000
  0.049847  0.033231  0.033231     24.000000
  0.066462  0.033231  0.033231     24.000000
  0.083078  0.033231  0.033231     24.000000
  0.099693  0.033231  0.033231     24.000000
  0.116309  0.033231  0.033231     24.000000
  0.132924  0.033231  0.033231     24.000000
  0.149540  0.033231  0.033231     24.000000
  0.049847  0.049847  0.033231     24.000000
  0.066462  0.049847  0.033231     48.000000
  0.083078  0.049847  0.033231     48.000000
  0.099693  0.049847  0.033231     48.000000
  0.116309  0.049847  0.033231     48.000000
  0.132924  0.049847  0.033231     48.000000
  0.149540  0.049847  0.033231     48.000000
  0.066462  0.066462  0.033231     24.000000
  0.083078  0.066462  0.033231     48.000000
  0.099693  0.066462  0.033231     48.000000
  0.116309  0.066462  0.033231     48.000000
  0.132924  0.066462  0.033231     48.000000
  0.149540  0.066462  0.033231     48.000000
  0.083078  0.083078  0.033231     24.000000
  0.099693  0.083078  0.033231     48.000000
  0.116309  0.083078  0.033231     48.000000
  0.132924  0.083078  0.033231     48.000000
  0.149540  0.083078  0.033231     48.000000
  0.099693  0.099693  0.033231     24.000000
  0.116309  0.099693  0.033231     48.000000
  0.132924  0.099693  0.033231     48.000000
  0.149540  0.099693  0.033231     48.000000
  0.116309  0.116309  0.033231     24.000000
  0.132924  0.116309  0.033231     48.000000
  0.149540  0.116309  0.033231     48.000000
  0.132924  0.132924  0.033231     24.000000
  0.149540  0.132924  0.033231     48.000000
  0.149540  0.149540  0.033231     24.000000
  0.049847  0.049847  0.049847      8.000000
  0.066462  0.049847  0.049847     24.000000
  0.083078  0.049847  0.049847     24.000000
  0.099693  0.049847  0.049847     24.000000
  0.116309  0.049847  0.049847     24.000000
  0.132924  0.049847  0.049847     24.000000
  0.149540  0.049847  0.049847     24.000000
  0.066462  0.066462  0.049847     24.000000
  0.083078  0.066462  0.049847     48.000000
  0.099693  0.066462  0.049847     48.000000
  0.116309  0.066462  0.049847     48.000000
  0.132924  0.066462  0.049847     48.000000
  0.149540  0.066462  0.049847     48.000000
  0.083078  0.083078  0.049847     24.000000
  0.099693  0.083078  0.049847     48.000000
  0.116309  0.083078  0.049847     48.000000
  0.132924  0.083078  0.049847     48.000000
  0.149540  0.083078  0.049847     48.000000
  0.099693  0.099693  0.049847     24.000000
  0.116309  0.099693  0.049847     48.000000
  0.132924  0.099693  0.049847     48.000000
  0.149540  0.099693  0.049847     48.000000
  0.116309  0.116309  0.049847     24.000000
  0.132924  0.116309  0.049847     48.000000
  0.149540  0.116309  0.049847     48.000000
  0.132924  0.132924  0.049847     24.000000
  0.149540  0.132924  0.049847     48.000000
  0.149540  0.149540  0.049847     24.000000
  0.066462  0.066462  0.066462      8.000000
  0.083078  0.066462  0.066462     24.000000
  0.099693  0.066462  0.066462     24.000000
  0.116309  0.066462  0.066462     24.000000
  0.132924  0.066462  0.066462     24.000000
  0.149540  0.066462  0.066462     24.000000
  0.083078  0.083078  0.066462     24.000000
  0.099693  0.083078  0.066462     48.000000
  0.116309  0.083078  0.066462     48.000000
  0.132924  0.083078  0.066462     48.000000
  0.149540  0.083078  0.066462     48.000000
  0.099693  0.099693  0.066462     24.000000
  0.116309  0.099693  0.066462     48.000000
  0.132924  0.099693  0.066462     48.000000
  0.149540  0.099693  0.066462     48.000000
  0.116309  0.116309  0.066462     24.000000
  0.132924  0.116309  0.066462     48.000000
  0.149540  0.116309  0.066462     48.000000
  0.132924  0.132924  0.066462     24.000000
  0.149540  0.132924  0.066462     48.000000
  0.149540  0.149540  0.066462     24.000000
  0.083078  0.083078  0.083078      8.000000
  0.099693  0.083078  0.083078     24.000000
  0.116309  0.083078  0.083078     24.000000
  0.132924  0.083078  0.083078     24.000000
  0.149540  0.083078  0.083078     24.000000
  0.099693  0.099693  0.083078     24.000000
  0.116309  0.099693  0.083078     48.000000
  0.132924  0.099693  0.083078     48.000000
  0.149540  0.099693  0.083078     48.000000
  0.116309  0.116309  0.083078     24.000000
  0.132924  0.116309  0.083078     48.000000
  0.149540  0.116309  0.083078     48.000000
  0.132924  0.132924  0.083078     24.000000
  0.149540  0.132924  0.083078     48.000000
  0.149540  0.149540  0.083078     24.000000
  0.099693  0.099693  0.099693      8.000000
  0.116309  0.099693  0.099693     24.000000
  0.132924  0.099693  0.099693     24.000000
  0.149540  0.099693  0.099693     24.000000
  0.116309  0.116309  0.099693     24.000000
  0.132924  0.116309  0.099693     48.000000
  0.149540  0.116309  0.099693     48.000000
  0.132924  0.132924  0.099693     24.000000
  0.149540  0.132924  0.099693     48.000000
  0.149540  0.149540  0.099693     24.000000
  0.116309  0.116309  0.116309      8.000000
  0.132924  0.116309  0.116309     24.000000
  0.149540  0.116309  0.116309     24.000000
  0.132924  0.132924  0.116309     24.000000
  0.149540  0.132924  0.116309     48.000000
  0.149540  0.149540  0.116309     24.000000
  0.132924  0.132924  0.132924      8.000000
  0.149540  0.132924  0.132924     24.000000
  0.149540  0.149540  0.132924     24.000000
  0.149540  0.149540  0.149540      8.000000
 
 -----------------------------------------------------------------------------
|                                                                             |
|           W    W    AA    RRRRR   N    N  II  N    N   GGGG   !!!           |
|           W    W   A  A   R    R  NN   N  II  NN   N  G    G  !!!           |
|           W    W  A    A  R    R  N N  N  II  N N  N  G       !!!           |
|           W WW W  AAAAAA  RRRRR   N  N N  II  N  N N  G  GGG   !            |
|           WW  WW  A    A  R   R   N   NN  II  N   NN  G    G                |
|           W    W  A    A  R    R  N    N  II  N    N   GGGG   !!!           |
|                                                                             |
|     The number of bands has been changed from the values supplied in        |
|     the INCAR file. This is a result of running the parallel version.       |
|     The orbitals not found in the WAVECAR file will be initialized with     |
|     random numbers, which is usually adequate. For correlated               |
|     calculations, however, you should redo the groundstate calculation.     |
|     I found NBANDS = 25. Now, NBANDS = 32.                                  |
|                                                                             |
 -----------------------------------------------------------------------------



--------------------------------------------------------------------------------------------------------




 Dimension of arrays:
   k-points           NKPTS =    220   k-points in BZ     NKDIM =    220   number of bands    NBANDS=     32
   number of dos      NEDOS =    301   number of ions     NIONS =      2
   non local maximal  LDIM  =      6   non local SUM 2l+1 LMDIM =     18
   total plane-waves  NPLWV =   4096
   max r-space proj   IRMAX =      1   max aug-charges    IRDMAX=   5742
   dimension x,y,z NGX =    16 NGY =   16 NGZ =   16
   dimension x,y,z NGXF=    28 NGYF=   28 NGZF=   28
   support grid    NGXF=    28 NGYF=   28 NGZF=   28
   ions per type =               2
   NGX,Y,Z   is equivalent  to a cutoff of   8.40,  8.40,  8.40 a.u.
   NGXF,Y,Z  is equivalent  to a cutoff of  14.70, 14.70, 14.70 a.u.

 SYSTEM =  unknown system                          
 POSCAR =  Mo                                      

 Startparameter for this run:
   NWRITE =      2    write-flag & timer
   PREC   = high      normal or accurate (medium, high low for compatibility)
   ISTART =      0    job   : 0-new  1-cont  2-samecut
   ICHARG =      2    charge: 1-file 2-atom 10-const
   ISPIN  =      1    spin polarized calculation?
   LNONCOLLINEAR =      F non collinear calculations
   LSORBIT =      F    spin-orbit coupling
   INIWAV =      1    electr: 0-lowe 1-rand  2-diag
   LASPH  =      F    aspherical Exc in radial PAW
 Electronic Relaxation 1
   ENCUT  =  200.0 eV  14.70 Ry    3.83 a.u.   3.65  3.65  3.65*2*pi/ulx,y,z
   ENINI  =  200.0     initial cutoff
   ENAUG  =  345.3 eV  augmentation charge cutoff
   NELM   =    100;   NELMIN=  2; NELMDL= -5     # of ELM steps 
   EDIFF  = 0.1E-05   stopping-criterion for ELM
   LREAL  =      F    real-space projection
   NLSPLINE    = F    spline interpolate recip. space projectors
   LCOMPAT=      F    compatible to vasp.4.4
   GGA_COMPAT  = T    GGA compatible to vasp.4.4-vasp.4.6
   LMAXPAW     = -100 max onsite density
   LMAXMIX     =    2 max onsite mixed and CHGCAR
   VOSKOWN=      0    Vosko Wilk Nusair interpolation
   ROPT   =    0.00000
 Ionic relaxation
   EDIFFG = 0.1E-04   stopping-criterion for IOM
   NSW    =      0    number of steps for IOM
   NBLOCK =      1;   KBLOCK =      1    inner block; outer block 
   IBRION =     -1    ionic relax: 0-MD 1-quasi-New 2-CG
   NFREE  =      0    steps in history (QN), initial steepest desc. (CG)
   ISIF   =      2    stress and relaxation
   IWAVPR =     10    prediction:  0-non 1-charg 2-wave 3-comb
   ISYM   =      2    0-nonsym 1-usesym 2-fastsym
   LCORR  =      T    Harris-Foulkes like correction to forces

   POTIM  = 0.5000    time-step for ionic-motion
   TEIN   =    0.0    initial temperature
   TEBEG  =    0.0;   TEEND  =   0.0 temperature during run
   SMASS  =  -3.00    Nose mass-parameter (am)
   estimated Nose-frequenzy (Omega)   =  0.10E-29 period in steps = 0.13E+47 mass=  -0.229E-27a.u.
   SCALEE = 1.0000    scale energy and forces
   NPACO  =    256;   APACO  = 10.0  distance and # of slots for P.C.
   PSTRESS=    0.0 pullay stress

  Mass of Ions in am
   POMASS =  95.94
  Ionic Valenz
   ZVAL   =   6.00
  Atomic Wigner-Seitz radii
   RWIGS  =  -1.00
  virtual crystal weights 
   VCA    =   1.00
   NELECT =      12.0000    total number of electrons
   NUPDOWN=      -1.0000    fix difference up-down

 DOS related values:
   EMIN   =  10.00;   EMAX   =-10.00  energy-range for DOS
   EFERMI =   0.00;   METHOD = LEGACY      
   ISMEAR =     1;   SIGMA  =   0.10  broadening in eV -4-tet -1-fermi 0-gaus

 Electronic relaxation 2 (details)
   IALGO  =     38    algorithm
   LDIAG  =      T    sub-space diagonalisation (order eigenvalues)
   LSUBROT=      F    optimize rotation matrix (better conditioning)
   TURBO    =      0    0=normal 1=particle mesh
   IRESTART =      0    0=no restart 2=restart with 2 vectors
   NREBOOT  =      0    no. of reboots
   NMIN     =      0    reboot dimension
   EREF     =   0.00    reference energy to select bands
   IMIX   =      4    mixing-type and parameters
     AMIX     =   0.40;   BMIX     =  1.00
     AMIX_MAG =   1.60;   BMIX_MAG =  1.00
     AMIN     =   0.10
     WC   =   100.;   INIMIX=   1;  MIXPRE=   1;  MAXMIX= -45

 Intra band minimization:
   WEIMIN = 0.0000     energy-eigenvalue tresh-hold
   EBREAK =  0.78E-08  absolut break condition
   DEPER  =   0.30     relativ break condition  

   TIME   =   0.40     timestep for ELM

  volume/ion in A,a.u.               =      15.89       107.24
  Fermi-wavevector in a.u.,A,eV,Ry     =   1.183230  2.235980 19.048604  1.400033
  Thomas-Fermi vector in A             =   2.319468
 
 Write flags
   LWAVE        =      F    write WAVECAR
   LDOWNSAMPLE  =      F    k-point downsampling of WAVECAR
   LCHARG       =      F    write CHGCAR
   LVTOT        =      F    write LOCPOT, total local potential
   LVHAR        =      F    write LOCPOT, Hartree potential only
   LELF         =      F    write electronic localiz. function (ELF)
   LORBIT       =      0    0 simple, 1 ext, 2 COOP (PROOUT), +10 PAW based schemes


 Dipole corrections
   LMONO  =      F    monopole corrections only (constant potential shift)
   LDIPOL =      F    correct potential (dipole corrections)
   IDIPOL =      0    1-x, 2-y, 3-z, 4-all directions 
   EPSILON=  1.0000000 bulk dielectric constant

 Exchange correlation treatment:
   GGA     =    --    GGA type
   LEXCH   =     8    internal setting for exchange type
   LIBXC   =     F    Libxc                    
   VOSKOWN =     0    Vosko Wilk Nusair interpolation
   LHFCALC =     F    Hartree Fock is set to
   LHFONE  =     F    Hartree Fock one center treatment
   AEXX    =    0.0000 exact exchange contribution

 Linear response parameters
   LEPSILON=     F    determine dielectric tensor
   LRPA    =     F    only Hartree local field effects (RPA)
   LNABLA  =     F    use nabla operator in PAW spheres
   LVEL    =     F    velocity operator in full k-point grid
   CSHIFT  =0.1000    complex shift for real part using Kramers Kronig
   OMEGAMAX=  -1.0    maximum frequency
   DEG_THRESHOLD= 0.2000000E-02 threshold for treating states as degnerate
   RTIME   =   -0.100 relaxation time in fs
  (WPLASMAI=    0.000 imaginary part of plasma frequency in eV, 0.658/RTIME)
   DFIELD  = 0.0000000 0.0000000 0.0000000 field for delta impulse in time
 
  Optional k-point grid parameters
   LKPOINTS_OPT  =     F    use optional k-point grid
   KPOINTS_OPT_MODE=     1    mode for optional k-point grid
 
 Orbital magnetization related:
   ORBITALMAG=     F  switch on orbital magnetization
   LCHIMAG   =     F  perturbation theory with respect to B field
   DQ        =  0.001000  dq finite difference perturbation B field
   LLRAUG    =     F  two centre corrections for induced B field
   LBONE     =     F  B-component reconstruction in AE one-centre
   LVGVCALC  =     T  calculate vGv susceptibility
   LVGVAPPL  =     F  apply vGv susceptibility instead of pGv for G=0

 Random number generation:
   RANDOM_GENERATOR = DEFAULT
   PCG_SEED         = not used


--------------------------------------------------------------------------------------------------------


 Static calculation
 charge density and potential will be updated during run
 non-spin polarized calculation
 Variant of blocked Davidson
 Davidson routine will perform the subspace rotation
 perform sub-space diagonalisation
    after iterative eigenvector-optimisation
 modified Broyden-mixing scheme, WC =      100.0
 initial mixing is a Kerker type mixing with AMIX =  0.4000 and BMIX =      1.0000
 Hartree-type preconditioning will be used
 using additional bands           26
 reciprocal scheme for non local part
 use partial core corrections
 calculate Harris-corrections to forces 
   (improved forces if not selfconsistent)
 use gradient corrections 
 use of overlap-Matrix (Vanderbilt PP)
 Methfessel and Paxton  Order N= 1 SIGMA  =   0.10


--------------------------------------------------------------------------------------------------------


  energy-cutoff  :      200.00
  volume of cell :       31.78
      direct lattice vectors                 reciprocal lattice vectors
     3.167617940  0.000000000  0.000000000     0.315694638  0.000000000  0.000000000
     0.000000000  3.167617940  0.000000000     0.000000000  0.315694638  0.000000000
     0.000000000  0.000000000  3.167617940     0.000000000  0.000000000  0.315694638

  length of vectors
     3.167617940  3.167617940  3.167617940     0.315694638  0.315694638  0.315694638


 
 k-points in units of 2pi/SCALE and weight: Automatic generation                    
   0.00000000  0.00000000  0.00000000       0.000
   0.01661551  0.00000000  0.00000000       0.001
   0.03323101  0.00000000  0.00000000       0.001
   0.04984652  0.00000000  0.00000000       0.001
   0.06646203  0.00000000  0.00000000       0.001
   0.08307754  0.00000000  0.00000000       0.001
   0.09969304  0.00000000  0.00000000       0.001
   0.11630855  0.00000000  0.00000000       0.001
   0.13292406  0.00000000  0.00000000       0.001
   0.14953957  0.00000000  0.00000000       0.001
   0.01661551  0.01661551  0.00000000       0.002
   0.03323101  0.01661551  0.00000000       0.003
   0.04984652  0.01661551  0.00000000       0.003
   0.06646203  0.01661551  0.00000000       0.003
   0.08307754  0.01661551  0.00000000       0.003
   0.09969304  0.01661551  0.00000000       0.003
   0.11630855  0.01661551  0.00000000       0.003
   0.13292406  0.01661551  0.00000000       0.003
   0.14953957  0.01661551  0.00000000       0.003
   0.03323101  0.03323101  0.00000000       0.002
   0.04984652  0.03323101  0.00000000       0.003
   0.06646203  0.03323101  0.00000000       0.003
   0.08307754  0.03323101  0.00000000       0.003
   0.09969304  0.03323101  0.00000000       0.003
   0.11630855  0.03323101  0.00000000       0.003
   0.13292406  0.03323101  0.00000000       0.003
   0.14953957  0.03323101  0.00000000       0.003
   0.04984652  0.04984652  0.00000000       0.002
   0.06646203  0.04984652  0.00000000       0.003
   0.08307754  0.04984652  0.00000000       0.003
   0.09969304  0.04984652  0.00000000       0.003
   0.11630855  0.04984652  0.00000000       0.003
   0.13292406  0.04984652  0.00000000       0.003
   0.14953957  0.04984652  0.00000000       0.003
   0.06646203  0.06646203  0.00000000       0.002
   0.08307754  0.06646203  0.00000000       0.003
   0.09969304  0.06646203  0.00000000       0.003
   0.11630855  0.06646203  0.00000000       0.003
   0.13292406  0.06646203  0.00000000       0.003
   0.14953957  0.06646203  0.00000000       0.003
   0.08307754  0.08307754  0.00000000       0.002
   0.09969304  0.08307754  0.00000000       0.003
   0.11630855  0.08307754  0.00000000       0.003
   0.13292406  0.08307754  0.00000000       0.003
   0.14953957  0.08307754  0.00000000       0.003
   0.09969304  0.09969304  0.00000000       0.002
   0.11630855  0.09969304  0.00000000       0.003
   0.13292406  0.09969304  0.00000000       0.003
   0.14953957  0.09969304  0.00000000       0.003
   0.11630855  0.11630855  0.00000000       0.002
   0.13292406  0.11630855  0.00000000       0.003
   0.14953957  0.11630855  0.00000000       0.003
   0.13292406  0.13292406  0.00000000       0.002
   0.14953957  0.13292406  0.00000000       0.003
   0.14953957  0.14953957  0.00000000       0.002
   0.01661551  0.01661551  0.01661551       0.001
   0.03323101  0.01661551  0.01661551       0.003
   0.04984652  0.01661551  0.01661551       0.003
   0.06646203  0.01661551  0.01661551       0.003
   0.08307754  0.01661551  0.01661551       0.003
   0.09969304  0.01661551  0.01661551       0.003
   0.11630855  0.01661551  0.01661551       0.003
   0.13292406  0.01661551  0.01661551       0.003
   0.14953957  0.01661551  0.01661551       0.003
   0.03323101  0.03323101  0.01661551       0.003
   0.04984652  0.03323101  0.01661551       0.007
   0.06646203  0.03323101  0.01661551       0.007
   0.08307754  0.03323101  0.01661551       0.007
   0.09969304  0.03323101  0.01661551       0.007
   0.11630855  0.03323101  0.01661551       0.007
   0.13292406  0.03323101  0.01661551       0.007
   0.14953957  0.03323101  0.01661551       0.007
   0.04984652  0.04984652  0.01661551       0.003
   0.06646203  0.04984652  0.01661551       0.007
   0.08307754  0.04984652  0.01661551       0.007
   0.09969304  0.04984652  0.01661551       0.007
   0.11630855  0.04984652  0.01661551       0.007
   0.13292406  0.04984652  0.01661551       0.007
   0.14953957  0.04984652  0.01661551       0.007
   0.06646203  0.06646203  0.01661551       0.003
   0.08307754  0.06646203  0.01661551       0.007
   0.09969304  0.06646203  0.01661551       0.007
   0.11630855  0.06646203  0.01661551       0.007
   0.13292406  0.06646203  0.01661551       0.007
   0.14953957  0.06646203  0.01661551       0.007
   0.08307754  0.08307754  0.01661551       0.003
   0.09969304  0.08307754  0.01661551       0.007
   0.11630855  0.08307754  0.01661551       0.007
   0.13292406  0.08307754  0.01661551       0.007
   0.14953957  0.08307754  0.01661551       0.007
   0.09969304  0.09969304  0.01661551       0.003
   0.11630855  0.09969304  0.01661551       0.007
   0.13292406  0.09969304  0.01661551       0.007
   0.14953957  0.09969304  0.01661551       0.007
   0.11630855  0.11630855  0.01661551       0.003
   0.13292406  0.11630855  0.01661551       0.007
   0.14953957  0.11630855  0.01661551       0.007
   0.13292406  0.13292406  0.01661551       0.003
   0.14953957  0.13292406  0.01661551       0.007
   0.14953957  0.14953957  0.01661551       0.003
   0.03323101  0.03323101  0.03323101       0.001
   0.04984652  0.03323101  0.03323101       0.003
   0.06646203  0.03323101  0.03323101       0.003
   0.08307754  0.03323101  0.03323101       0.003
   0.09969304  0.03323101  0.03323101       0.003
   0.11630855  0.03323101  0.03323101       0.003
   0.13292406  0.03323101  0.03323101       0.003
   0.14953957  0.03323101  0.03323101       0.003
   0.04984652  0.04984652  0.03323101       0.003
   0.06646203  0.04984652  0.03323101       0.007
   0.08307754  0.04984652  0.03323101       0.007
   0.09969304  0.04984652  0.03323101       0.007
   0.11630855  0.04984652  0.03323101       0.007
   0.13292406  0.04984652  0.03323101       0.007
   0.14953957  0.04984652  0.03323101       0.007
   0.06646203  0.06646203  0.03323101       0.003
   0.08307754  0.06646203  0.03323101       0.007
   0.09969304  0.06646203  0.03323101       0.007
   0.11630855  0.06646203  0.03323101       0.007
   0.13292406  0.06646203  0.03323101       0.007
   0.14953957  0.06646203  0.03323101       0.007
   0.08307754  0.08307754  0.03323101       0.003
   0.09969304  0.08307754  0.03323101       0.007
   0.11630855  0.08307754  0.03323101       0.007
   0.13292406  0.08307754  0.03323101       0.007
   0.14953957  0.08307754  0.03323101       0.007
   0.09969304  0.09969304  0.03323101       0.003
   0.11630855  0.09969304  0.03323101       0.007
   0.13292406  0.09969304  0.03323101       0.007
   0.14953957  0.09969304  0.03323101       0.007
   0.11630855  0.11630855  0.03323101       0.003
   0.13292406  0.11630855  0.03323101       0.007
   0.14953957  0.11630855  0.03323101       0.007
   0.13292406  0.13292406  0.03323101       0.003
   0.14953957  0.13292406  0.03323101       0.007
   0.14953957  0.14953957  0.03323101       0.003
   0.04984652  0.04984652  0.04984652       0.001
   0.06646203  0.04984652  0.04984652       0.003
   0.08307754  0.04984652  0.04984652       0.003
   0.09969304  0.04984652  0.04984652       0.003
   0.11630855  0.04984652  0.04984652       0.003
   0.13292406  0.04984652  0.04984652       0.003
   0.14953957  0.04984652  0.04984652       0.003
   0.06646203  0.06646203  0.04984652       0.003
   0.08307754  0.06646203  0.04984652       0.007
   0.09969304  0.06646203  0.04984652       0.007
   0.11630855  0.06646203  0.04984652       0.007
   0.13292406  0.06646203  0.04984652       0.007
   0.14953957  0.06646203  0.04984652       0.007
   0.08307754  0.08307754  0.04984652       0.003
   0.09969304  0.08307754  0.04984652       0.007
   0.11630855  0.08307754  0.04984652       0.007
   0.13292406  0.08307754  0.04984652       0.007
   0.14953957  0.08307754  0.04984652       0.007
   0.09969304  0.09969304  0.04984652       0.003
   0.11630855  0.09969304  0.04984652       0.007
   0.13292406  0.09969304  0.04984652       0.007
   0.14953957  0.09969304  0.04984652       0.007
   0.11630855  0.11630855  0.04984652       0.003
   0.13292406  0.11630855  0.04984652       0.007
   0.14953957  0.11630855  0.04984652       0.007
   0.13292406  0.13292406  0.04984652       0.003
   0.14953957  0.13292406  0.04984652       0.007
   0.14953957  0.14953957  0.04984652       0.003
   0.06646203  0.06646203  0.06646203       0.001
   0.08307754  0.06646203  0.06646203       0.003
   0.09969304  0.06646203  0.06646203       0.003
   0.11630855  0.06646203  0.06646203       0.003
   0.13292406  0.06646203  0.06646203       0.003
   0.14953957  0.06646203  0.06646203       0.003
   0.08307754  0.08307754  0.06646203       0.003
   0.09969304  0.08307754  0.06646203       0.007
   0.11630855  0.08307754  0.06646203       0.007
   0.13292406  0.08307754  0.06646203       0.007
   0.14953957  0.08307754  0.06646203       0.007
   0.09969304  0.09969304  0.06646203       0.003
   0.11630855  0.09969304  0.06646203       0.007
   0.13292406  0.09969304  0.06646203       0.007
   0.14953957  0.09969304  0.06646203       0.007
   0.11630855  0.11630855  0.06646203       0.003
   0.13292406  0.11630855  0.06646203       0.007
   0.14953957  0.11630855  0.06646203       0.007
   0.13292406  0.13292406  0.06646203       0.003
   0.14953957  0.13292406  0.06646203       0.007
   0.14953957  0.14953957  0.06646203       0.003
   0.08307754  0.08307754  0.08307754       0.001
   0.09969304  0.08307754  0.08307754       0.003
   0.11630855  0.08307754  0.08307754       0.003
   0.13292406  0.08307754  0.08307754       0.003
   0.14953957  0.08307754  0.08307754       0.003
   0.09969304  0.09969304  0.08307754       0.003
   0.11630855  0.09969304  0.08307754       0.007
   0.13292406  0.09969304  0.08307754       0.007
   0.14953957  0.09969304  0.08307754       0.007
   0.11630855  0.11630855  0.08307754       0.003
   0.13292406  0.11630855  0.08307754       0.007
   0.14953957  0.11630855  0.08307754       0.007
   0.13292406  0.13292406  0.08307754       0.003
   0.14953957  0.13292406  0.08307754       0.007
   0.14953957  0.14953957  0.08307754       0.003
   0.09969304  0.09969304  0.09969304       0.001
   0.11630855  0.09969304  0.09969304       0.003
   0.13292406  0.09969304  0.09969304       0.003
   0.14953957  0.09969304  0.09969304       0.003
   0.11630855  0.11630855  0.09969304       0.003
   0.13292406  0.11630855  0.09969304       0.007
   0.14953957  0.11630855  0.09969304       0.007
   0.13292406  0.13292406  0.09969304       0.003
   0.14953957  0.13292406  0.09969304       0.007
   0.14953957  0.14953957  0.09969304       0.003
   0.11630855  0.11630855  0.11630855       0.001
   0.13292406  0.11630855  0.11630855       0.003
   0.14953957  0.11630855  0.11630855       0.003
   0.13292406  0.13292406  0.11630855       0.003
   0.14953957  0.13292406  0.11630855       0.007
   0.14953957  0.14953957  0.11630855       0.003
   0.13292406  0.13292406  0.13292406       0.001
   0.14953957  0.13292406  0.13292406       0.003
   0.14953957  0.14953957  0.13292406       0.003
   0.14953957  0.14953957  0.14953957       0.001
 
 k-points in reciprocal lattice and weights: Automatic generation                    
   0.00000000  0.00000000  0.00000000       0.000
   0.05263158  0.00000000  0.00000000       0.001
   0.10526316  0.00000000  0.00000000       0.001
   0.15789474  0.00000000  0.00000000       0.001
   0.21052632  0.00000000  0.00000000       0.001
   0.26315789  0.00000000  0.00000000       0.001
   0.31578947  0.00000000  0.00000000       0.001
   0.36842105  0.00000000  0.00000000       0.001
   0.42105263  0.00000000  0.00000000       0.001
   0.47368421  0.00000000  0.00000000       0.001
   0.05263158  0.05263158  0.00000000       0.002
   0.10526316  0.05263158  0.00000000       0.003
   0.15789474  0.05263158  0.00000000       0.003
   0.21052632  0.05263158  0.00000000       0.003
   0.26315789  0.05263158  0.00000000       0.003
   0.31578947  0.05263158  0.00000000       0.003
   0.36842105  0.05263158  0.00000000       0.003
   0.42105263  0.05263158  0.00000000       0.003
   0.47368421  0.05263158  0.00000000       0.003
   0.10526316  0.10526316  0.00000000       0.002
   0.15789474  0.10526316  0.00000000       0.003
   0.21052632  0.10526316  0.00000000       0.003
   0.26315789  0.10526316  0.00000000       0.003
   0.31578947  0.10526316  0.00000000       0.003
   0.36842105  0.10526316  0.00000000       0.003
   0.42105263  0.10526316  0.00000000       0.003
   0.47368421  0.10526316  0.00000000       0.003
   0.15789474  0.15789474  0.00000000       0.002
   0.21052632  0.15789474  0.00000000       0.003
   0.26315789  0.15789474  0.00000000       0.003
   0.31578947  0.15789474  0.00000000       0.003
   0.36842105  0.15789474  0.00000000       0.003
   0.42105263  0.15789474  0.00000000       0.003
   0.47368421  0.15789474  0.00000000       0.003
   0.21052632  0.21052632  0.00000000       0.002
   0.26315789  0.21052632  0.00000000       0.003
   0.31578947  0.21052632  0.00000000       0.003
   0.36842105  0.21052632  0.00000000       0.003
   0.42105263  0.21052632  0.00000000       0.003
   0.47368421  0.21052632  0.00000000       0.003
   0.26315789  0.26315789  0.00000000       0.002
   0.31578947  0.26315789  0.00000000       0.003
   0.36842105  0.26315789  0.00000000       0.003
   0.42105263  0.26315789  0.00000000       0.003
   0.47368421  0.26315789  0.00000000       0.003
   0.31578947  0.31578947  0.00000000       0.002
   0.36842105  0.31578947  0.00000000       0.003
   0.42105263  0.31578947  0.00000000       0.003
   0.47368421  0.31578947  0.00000000       0.003
   0.36842105  0.36842105  0.00000000       0.002
   0.42105263  0.36842105  0.00000000       0.003
   0.47368421  0.36842105  0.00000000       0.003
   0.42105263  0.42105263  0.00000000       0.002
   0.47368421  0.42105263  0.00000000       0.003
   0.47368421  0.47368421  0.00000000       0.002
   0.05263158  0.05263158  0.05263158       0.001
   0.10526316  0.05263158  0.05263158       0.003
   0.15789474  0.05263158  0.05263158       0.003
   0.21052632  0.05263158  0.05263158       0.003
   0.26315789  0.05263158  0.05263158       0.003
   0.31578947  0.05263158  0.05263158       0.003
   0.36842105  0.05263158  0.05263158       0.003
   0.42105263  0.05263158  0.05263158       0.003
   0.47368421  0.05263158  0.05263158       0.003
   0.10526316  0.10526316  0.05263158       0.003
   0.15789474  0.10526316  0.05263158       0.007
   0.21052632  0.10526316  0.05263158       0.007
   0.26315789  0.10526316  0.05263158       0.007
   0.31578947  0.10526316  0.05263158       0.007
   0.36842105  0.10526316  0.05263158       0.007
   0.42105263  0.10526316  0.05263158       0.007
   0.47368421  0.10526316  0.05263158       0.007
   0.15789474  0.15789474  0.05263158       0.003
   0.21052632  0.15789474  0.05263158       0.007
   0.26315789  0.15789474  0.05263158       0.007
   0.31578947  0.15789474  0.05263158       0.007
   0.36842105  0.15789474  0.05263158       0.007
   0.42105263  0.15789474  0.05263158       0.007
   0.47368421  0.15789474  0.05263158       0.007
   0.21052632  0.21052632  0.05263158       0.003
   0.26315789  0.21052632  0.05263158       0.007
   0.31578947  0.21052632  0.05263158       0.007
   0.36842105  0.21052632  0.05263158       0.007
   0.42105263  0.21052632  0.05263158       0.007
   0.47368421  0.21052632  0.05263158       0.007
   0.26315789  0.26315789  0.05263158       0.003
   0.31578947  0.26315789  0.05263158       0.007
   0.36842105  0.26315789  0.05263158       0.007
   0.42105263  0.26315789  0.05263158       0.007
   0.47368421  0.26315789  0.05263158       0.007
   0.31578947  0.31578947  0.05263158       0.003
   0.36842105  0.31578947  0.05263158       0.007
   0.42105263  0.31578947  0.05263158       0.007
   0.47368421  0.31578947  0.05263158       0.007
   0.36842105  0.36842105  0.05263158       0.003
   0.42105263  0.36842105  0.05263158       0.007
   0.47368421  0.36842105  0.05263158       0.007
   0.42105263  0.42105263  0.05263158       0.003
   0.47368421  0.42105263  0.05263158       0.007
   0.47368421  0.47368421  0.05263158       0.003
   0.10526316  0.10526316  0.10526316       0.001
   0.15789474  0.10526316  0.10526316       0.003
   0.21052632  0.10526316  0.10526316       0.003
   0.26315789  0.10526316  0.10526316       0.003
   0.31578947  0.10526316  0.10526316       0.003
   0.36842105  0.10526316  0.10526316       0.003
   0.42105263  0.10526316  0.10526316       0.003
   0.47368421  0.10526316  0.10526316       0.003
   0.15789474  0.15789474  0.10526316       0.003
   0.21052632  0.15789474  0.10526316       0.007
   0.26315789  0.15789474  0.10526316       0.007
   0.31578947  0.15789474  0.10526316       0.007
   0.36842105  0.15789474  0.10526316       0.007
   0.42105263  0.15789474  0.10526316       0.007
   0.47368421  0.15789474  0.10526316       0.007
   0.21052632  0.21052632  0.10526316       0.003
   0.26315789  0.21052632  0.10526316       0.007
   0.31578947  0.21052632  0.10526316       0.007
   0.36842105  0.21052632  0.10526316       0.007
   0.42105263  0.21052632  0.10526316       0.007
   0.47368421  0.21052632  0.10526316       0.007
   0.26315789  0.26315789  0.10526316       0.003
   0.31578947  0.26315789  0.10526316       0.007
   0.36842105  0.26315789  0.10526316       0.007
   0.42105263  0.26315789  0.10526316       0.007
   0.47368421  0.26315789  0.10526316       0.007
   0.31578947  0.31578947  0.10526316       0.003
   0.36842105  0.31578947  0.10526316       0.007
   0.42105263  0.31578947  0.10526316       0.007
   0.47368421  0.31578947  0.10526316       0.007
   0.36842105  0.36842105  0.10526316       0.003
   0.42105263  0.36842105  0.10526316       0.007
   0.47368421  0.36842105  0.10526316       0.007
   0.42105263  0.42105263  0.10526316       0.003
   0.47368421  0.42105263  0.10526316       0.007
   0.47368421  0.47368421  0.10526316       0.003
   0.15789474  0.15789474  0.15789474       0.001
   0.21052632  0.15789474  0.15789474       0.003
   0.26315789  0.15789474  0.15789474       0.003
   0.31578947  0.15789474  0.15789474       0.003
   0.36842105  0.15789474  0.15789474       0.003
   0.42105263  0.15789474  0.15789474       0.003
   0.47368421  0.15789474  0.15789474       0.003
   0.21052632  0.21052632  0.15789474       0.003
   0.26315789  0.21052632  0.15789474       0.007
   0.31578947  0.21052632  0.15789474       0.007
   0.36842105  0.21052632  0.15789474       0.007
   0.42105263  0.21052632  0.15789474       0.007
   0.47368421  0.21052632  0.15789474       0.007
   0.26315789  0.26315789  0.15789474       0.003
   0.31578947  0.26315789  0.15789474       0.007
   0.36842105  0.26315789  0.15789474       0.007
   0.42105263  0.26315789  0.15789474       0.007
   0.47368421  0.26315789  0.15789474       0.007
   0.31578947  0.31578947  0.15789474       0.003
   0.36842105  0.31578947  0.15789474       0.007
   0.42105263  0.31578947  0.15789474       0.007
   0.47368421  0.31578947  0.15789474       0.007
   0.36842105  0.36842105  0.15789474       0.003
   0.42105263  0.36842105  0.15789474       0.007
   0.47368421  0.36842105  0.15789474       0.007
   0.42105263  0.42105263  0.15789474       0.003
   0.47368421  0.42105263  0.15789474       0.007
   0.47368421  0.47368421  0.15789474       0.003
   0.21052632  0.21052632  0.21052632       0.001
   0.26315789  0.21052632  0.21052632       0.003
   0.31578947  0.21052632  0.21052632       0.003
   0.36842105  0.21052632  0.21052632       0.003
   0.42105263  0.21052632  0.21052632       0.003
   0.47368421  0.21052632  0.21052632       0.003
   0.26315789  0.26315789  0.21052632       0.003
   0.31578947  0.26315789  0.21052632       0.007
   0.36842105  0.26315789  0.21052632       0.007
   0.42105263  0.26315789  0.21052632       0.007
   0.47368421  0.26315789  0.21052632       0.007
   0.31578947  0.31578947  0.21052632       0.003
   0.36842105  0.31578947  0.21052632       0.007
   0.42105263  0.31578947  0.21052632       0.007
   0.47368421  0.31578947  0.21052632       0.007
   0.36842105  0.36842105  0.21052632       0.003
   0.42105263  0.36842105  0.21052632       0.007
   0.47368421  0.36842105  0.21052632       0.007
   0.42105263  0.42105263  0.21052632       0.003
   0.47368421  0.42105263  0.21052632       0.007
   0.47368421  0.47368421  0.21052632       0.003
   0.26315789  0.26315789  0.26315789       0.001
   0.31578947  0.26315789  0.26315789       0.003
   0.36842105  0.26315789  0.26315789       0.003
   0.42105263  0.26315789  0.26315789       0.003
   0.47368421  0.26315789  0.26315789       0.003
   0.31578947  0.31578947  0.26315789       0.003
   0.36842105  0.31578947  0.26315789       0.007
   0.42105263  0.31578947  0.26315789       0.007
   0.47368421  0.31578947  0.26315789       0.007
   0.36842105  0.36842105  0.26315789       0.003
   0.42105263  0.36842105  0.26315789       0.007
   0.47368421  0.36842105  0.26315789       0.007
   0.42105263  0.42105263  0.26315789       0.003
   0.47368421  0.42105263  0.26315789       0.007
   0.47368421  0.47368421  0.26315789       0.003
   0.31578947  0.31578947  0.31578947       0.001
   0.36842105  0.31578947  0.31578947       0.003
   0.42105263  0.31578947  0.31578947       0.003
   0.47368421  0.31578947  0.31578947       0.003
   0.36842105  0.36842105  0.31578947       0.003
   0.42105263  0.36842105  0.31578947       0.007
   0.47368421  0.36842105  0.31578947       0.007
   0.42105263  0.42105263  0.31578947       0.003
   0.47368421  0.42105263  0.31578947       0.007
   0.47368421  0.47368421  0.31578947       0.003
   0.36842105  0.36842105  0.36842105       0.001
   0.42105263  0.36842105  0.36842105       0.003
   0.47368421  0.36842105  0.36842105       0.003
   0.42105263  0.42105263  0.36842105       0.003
   0.47368421  0.42105263  0.36842105       0.007
   0.47368421  0.47368421  0.36842105       0.003
   0.42105263  0.42105263  0.42105263       0.001
   0.47368421  0.42105263  0.42105263       0.003
   0.47368421  0.47368421  0.42105263       0.003
   0.47368421  0.47368421  0.47368421       0.001
 
 position of ions in fractional coordinates (direct lattice) 
   0.00000000  0.00000000  0.00000000
   0.50000000  0.50000000  0.50000000
 
 position of ions in cartesian coordinates  (Angst):
   0.00000000  0.00000000  0.00000000
   1.58380897  1.58380897  1.58380897
 


--------------------------------------------------------------------------------------------------------


 k-point   1 :   0.0000 0.0000 0.0000  plane waves:     203
 k-point   2 :   0.0526 0.0000 0.0000  plane waves:     203
 k-point   3 :   0.1053 0.0000 0.0000  plane waves:     195
 k-point   4 :   0.1579 0.0000 0.0000  plane waves:     203
 k-point   5 :   0.2105 0.0000 0.0000  plane waves:     211
 k-point   6 :   0.2632 0.0000 0.0000  plane waves:     211
 k-point   7 :   0.3158 0.0000 0.0000  plane waves:     207
 k-point   8 :   0.3684 0.0000 0.0000  plane waves:     204
 k-point   9 :   0.4211 0.0000 0.0000  plane waves:     212
 k-point  10 :   0.4737 0.0000 0.0000  plane waves:     212
 k-point  11 :   0.0526 0.0526 0.0000  plane waves:     201
 k-point  12 :   0.1053 0.0526 0.0000  plane waves:     202
 k-point  13 :   0.1579 0.0526 0.0000  plane waves:     205
 k-point  14 :   0.2105 0.0526 0.0000  plane waves:     209
 k-point  15 :   0.2632 0.0526 0.0000  plane waves:     213
 k-point  16 :   0.3158 0.0526 0.0000  plane waves:     211
 k-point  17 :   0.3684 0.0526 0.0000  plane waves:     206
 k-point  18 :   0.4211 0.0526 0.0000  plane waves:     204
 k-point  19 :   0.4737 0.0526 0.0000  plane waves:     205
 k-point  20 :   0.1053 0.1053 0.0000  plane waves:     201
 k-point  21 :   0.1579 0.1053 0.0000  plane waves:     206
 k-point  22 :   0.2105 0.1053 0.0000  plane waves:     208
 k-point  23 :   0.2632 0.1053 0.0000  plane waves:     207
 k-point  24 :   0.3158 0.1053 0.0000  plane waves:     207
 k-point  25 :   0.3684 0.1053 0.0000  plane waves:     208
 k-point  26 :   0.4211 0.1053 0.0000  plane waves:     204
 k-point  27 :   0.4737 0.1053 0.0000  plane waves:     205
 k-point  28 :   0.1579 0.1579 0.0000  plane waves:     203
 k-point  29 :   0.2105 0.1579 0.0000  plane waves:     204
 k-point  30 :   0.2632 0.1579 0.0000  plane waves:     206
 k-point  31 :   0.3158 0.1579 0.0000  plane waves:     207
 k-point  32 :   0.3684 0.1579 0.0000  plane waves:     206
 k-point  33 :   0.4211 0.1579 0.0000  plane waves:     204
 k-point  34 :   0.4737 0.1579 0.0000  plane waves:     204
 k-point  35 :   0.2105 0.2105 0.0000  plane waves:     205
 k-point  36 :   0.2632 0.2105 0.0000  plane waves:     204
 k-point  37 :   0.3158 0.2105 0.0000  plane waves:     206
 k-point  38 :   0.3684 0.2105 0.0000  plane waves:     206
 k-point  39 :   0.4211 0.2105 0.0000  plane waves:     206
 k-point  40 :   0.4737 0.2105 0.0000  plane waves:     202
 k-point  41 :   0.2632 0.2632 0.0000  plane waves:     205
 k-point  42 :   0.3158 0.2632 0.0000  plane waves:     203
 k-point  43 :   0.3684 0.2632 0.0000  plane waves:     205
 k-point  44 :   0.4211 0.2632 0.0000  plane waves:     204
 k-point  45 :   0.4737 0.2632 0.0000  plane waves:     202
 k-point  46 :   0.3158 0.3158 0.0000  plane waves:     201
 k-point  47 :   0.3684 0.3158 0.0000  plane waves:     204
 k-point  48 :   0.4211 0.3158 0.0000  plane waves:     206
 k-point  49 :   0.4737 0.3158 0.0000  plane waves:     205
 k-point  50 :   0.3684 0.3684 0.0000  plane waves:     203
 k-point  51 :   0.4211 0.3684 0.0000  plane waves:     205
 k-point  52 :   0.4737 0.3684 0.0000  plane waves:     208
 k-point  53 :   0.4211 0.4211 0.0000  plane waves:     208
 k-point  54 :   0.4737 0.4211 0.0000  plane waves:     208
 k-point  55 :   0.4737 0.4737 0.0000  plane waves:     202
 k-point  56 :   0.0526 0.0526 0.0526  plane waves:     197
 k-point  57 :   0.1053 0.0526 0.0526  plane waves:     203
 k-point  58 :   0.1579 0.0526 0.0526  plane waves:     205
 k-point  59 :   0.2105 0.0526 0.0526  plane waves:     207
 k-point  60 :   0.2632 0.0526 0.0526  plane waves:     208
 k-point  61 :   0.3158 0.0526 0.0526  plane waves:     208
 k-point  62 :   0.3684 0.0526 0.0526  plane waves:     208
 k-point  63 :   0.4211 0.0526 0.0526  plane waves:     206
 k-point  64 :   0.4737 0.0526 0.0526  plane waves:     208
 k-point  65 :   0.1053 0.1053 0.0526  plane waves:     203
 k-point  66 :   0.1579 0.1053 0.0526  plane waves:     205
 k-point  67 :   0.2105 0.1053 0.0526  plane waves:     208
 k-point  68 :   0.2632 0.1053 0.0526  plane waves:     206
 k-point  69 :   0.3158 0.1053 0.0526  plane waves:     206
 k-point  70 :   0.3684 0.1053 0.0526  plane waves:     207
 k-point  71 :   0.4211 0.1053 0.0526  plane waves:     206
 k-point  72 :   0.4737 0.1053 0.0526  plane waves:     205
 k-point  73 :   0.1579 0.1579 0.0526  plane waves:     202
 k-point  74 :   0.2105 0.1579 0.0526  plane waves:     208
 k-point  75 :   0.2632 0.1579 0.0526  plane waves:     207
 k-point  76 :   0.3158 0.1579 0.0526  plane waves:     205
 k-point  77 :   0.3684 0.1579 0.0526  plane waves:     206
 k-point  78 :   0.4211 0.1579 0.0526  plane waves:     204
 k-point  79 :   0.4737 0.1579 0.0526  plane waves:     204
 k-point  80 :   0.2105 0.2105 0.0526  plane waves:     203
 k-point  81 :   0.2632 0.2105 0.0526  plane waves:     207
 k-point  82 :   0.3158 0.2105 0.0526  plane waves:     206
 k-point  83 :   0.3684 0.2105 0.0526  plane waves:     205
 k-point  84 :   0.4211 0.2105 0.0526  plane waves:     204
 k-point  85 :   0.4737 0.2105 0.0526  plane waves:     201
 k-point  86 :   0.2632 0.2632 0.0526  plane waves:     205
 k-point  87 :   0.3158 0.2632 0.0526  plane waves:     203
 k-point  88 :   0.3684 0.2632 0.0526  plane waves:     205
 k-point  89 :   0.4211 0.2632 0.0526  plane waves:     203
 k-point  90 :   0.4737 0.2632 0.0526  plane waves:     202
 k-point  91 :   0.3158 0.3158 0.0526  plane waves:     203
 k-point  92 :   0.3684 0.3158 0.0526  plane waves:     204
 k-point  93 :   0.4211 0.3158 0.0526  plane waves:     205
 k-point  94 :   0.4737 0.3158 0.0526  plane waves:     205
 k-point  95 :   0.3684 0.3684 0.0526  plane waves:     205
 k-point  96 :   0.4211 0.3684 0.0526  plane waves:     205
 k-point  97 :   0.4737 0.3684 0.0526  plane waves:     205
 k-point  98 :   0.4211 0.4211 0.0526  plane waves:     207
 k-point  99 :   0.4737 0.4211 0.0526  plane waves:     207
 k-point 100 :   0.4737 0.4737 0.0526  plane waves:     204
 k-point 101 :   0.1053 0.1053 0.1053  plane waves:     209
 k-point 102 :   0.1579 0.1053 0.1053  plane waves:     208
 k-point 103 :   0.2105 0.1053 0.1053  plane waves:     206
 k-point 104 :   0.2632 0.1053 0.1053  plane waves:     206
 k-point 105 :   0.3158 0.1053 0.1053  plane waves:     207
 k-point 106 :   0.3684 0.1053 0.1053  plane waves:     204
 k-point 107 :   0.4211 0.1053 0.1053  plane waves:     204
 k-point 108 :   0.4737 0.1053 0.1053  plane waves:     207
 k-point 109 :   0.1579 0.1579 0.1053  plane waves:     206
 k-point 110 :   0.2105 0.1579 0.1053  plane waves:     208
 k-point 111 :   0.2632 0.1579 0.1053  plane waves:     206
 k-point 112 :   0.3158 0.1579 0.1053  plane waves:     205
 k-point 113 :   0.3684 0.1579 0.1053  plane waves:     204
 k-point 114 :   0.4211 0.1579 0.1053  plane waves:     204
 k-point 115 :   0.4737 0.1579 0.1053  plane waves:     206
 k-point 116 :   0.2105 0.2105 0.1053  plane waves:     205
 k-point 117 :   0.2632 0.2105 0.1053  plane waves:     207
 k-point 118 :   0.3158 0.2105 0.1053  plane waves:     208
 k-point 119 :   0.3684 0.2105 0.1053  plane waves:     205
 k-point 120 :   0.4211 0.2105 0.1053  plane waves:     202
 k-point 121 :   0.4737 0.2105 0.1053  plane waves:     203
 k-point 122 :   0.2632 0.2632 0.1053  plane waves:     203
 k-point 123 :   0.3158 0.2632 0.1053  plane waves:     204
 k-point 124 :   0.3684 0.2632 0.1053  plane waves:     207
 k-point 125 :   0.4211 0.2632 0.1053  plane waves:     204
 k-point 126 :   0.4737 0.2632 0.1053  plane waves:     201
 k-point 127 :   0.3158 0.3158 0.1053  plane waves:     201
 k-point 128 :   0.3684 0.3158 0.1053  plane waves:     204
 k-point 129 :   0.4211 0.3158 0.1053  plane waves:     205
 k-point 130 :   0.4737 0.3158 0.1053  plane waves:     204
 k-point 131 :   0.3684 0.3684 0.1053  plane waves:     208
 k-point 132 :   0.4211 0.3684 0.1053  plane waves:     204
 k-point 133 :   0.4737 0.3684 0.1053  plane waves:     204
 k-point 134 :   0.4211 0.4211 0.1053  plane waves:     209
 k-point 135 :   0.4737 0.4211 0.1053  plane waves:     208
 k-point 136 :   0.4737 0.4737 0.1053  plane waves:     207
 k-point 137 :   0.1579 0.1579 0.1579  plane waves:     202
 k-point 138 :   0.2105 0.1579 0.1579  plane waves:     206
 k-point 139 :   0.2632 0.1579 0.1579  plane waves:     208
 k-point 140 :   0.3158 0.1579 0.1579  plane waves:     205
 k-point 141 :   0.3684 0.1579 0.1579  plane waves:     202
 k-point 142 :   0.4211 0.1579 0.1579  plane waves:     204
 k-point 143 :   0.4737 0.1579 0.1579  plane waves:     202
 k-point 144 :   0.2105 0.2105 0.1579  plane waves:     206
 k-point 145 :   0.2632 0.2105 0.1579  plane waves:     205
 k-point 146 :   0.3158 0.2105 0.1579  plane waves:     205
 k-point 147 :   0.3684 0.2105 0.1579  plane waves:     205
 k-point 148 :   0.4211 0.2105 0.1579  plane waves:     204
 k-point 149 :   0.4737 0.2105 0.1579  plane waves:     201
 k-point 150 :   0.2632 0.2632 0.1579  plane waves:     205
 k-point 151 :   0.3158 0.2632 0.1579  plane waves:     203
 k-point 152 :   0.3684 0.2632 0.1579  plane waves:     206
 k-point 153 :   0.4211 0.2632 0.1579  plane waves:     203
 k-point 154 :   0.4737 0.2632 0.1579  plane waves:     204
 k-point 155 :   0.3158 0.3158 0.1579  plane waves:     202
 k-point 156 :   0.3684 0.3158 0.1579  plane waves:     205
 k-point 157 :   0.4211 0.3158 0.1579  plane waves:     203
 k-point 158 :   0.4737 0.3158 0.1579  plane waves:     204
 k-point 159 :   0.3684 0.3684 0.1579  plane waves:     204
 k-point 160 :   0.4211 0.3684 0.1579  plane waves:     204
 k-point 161 :   0.4737 0.3684 0.1579  plane waves:     205
 k-point 162 :   0.4211 0.4211 0.1579  plane waves:     208
 k-point 163 :   0.4737 0.4211 0.1579  plane waves:     207
 k-point 164 :   0.4737 0.4737 0.1579  plane waves:     205
 k-point 165 :   0.2105 0.2105 0.2105  plane waves:     208
 k-point 166 :   0.2632 0.2105 0.2105  plane waves:     203
 k-point 167 :   0.3158 0.2105 0.2105  plane waves:     203
 k-point 168 :   0.3684 0.2105 0.2105  plane waves:     203
 k-point 169 :   0.4211 0.2105 0.2105  plane waves:     203
 k-point 170 :   0.4737 0.2105 0.2105  plane waves:     207
 k-point 171 :   0.2632 0.2632 0.2105  plane waves:     202
 k-point 172 :   0.3158 0.2632 0.2105  plane waves:     202
 k-point 173 :   0.3684 0.2632 0.2105  plane waves:     201
 k-point 174 :   0.4211 0.2632 0.2105  plane waves:     204
 k-point 175 :   0.4737 0.2632 0.2105  plane waves:     205
 k-point 176 :   0.3158 0.3158 0.2105  plane waves:     204
 k-point 177 :   0.3684 0.3158 0.2105  plane waves:     204
 k-point 178 :   0.4211 0.3158 0.2105  plane waves:     204
 k-point 179 :   0.4737 0.3158 0.2105  plane waves:     202
 k-point 180 :   0.3684 0.3684 0.2105  plane waves:     203
 k-point 181 :   0.4211 0.3684 0.2105  plane waves:     202
 k-point 182 :   0.4737 0.3684 0.2105  plane waves:     203
 k-point 183 :   0.4211 0.4211 0.2105  plane waves:     203
 k-point 184 :   0.4737 0.4211 0.2105  plane waves:     203
 k-point 185 :   0.4737 0.4737 0.2105  plane waves:     207
 k-point 186 :   0.2632 0.2632 0.2632  plane waves:     205
 k-point 187 :   0.3158 0.2632 0.2632  plane waves:     202
 k-point 188 :   0.3684 0.2632 0.2632  plane waves:     203
 k-point 189 :   0.4211 0.2632 0.2632  plane waves:     201
 k-point 190 :   0.4737 0.2632 0.2632  plane waves:     203
 k-point 191 :   0.3158 0.3158 0.2632  plane waves:     207
 k-point 192 :   0.3684 0.3158 0.2632  plane waves:     201
 k-point 193 :   0.4211 0.3158 0.2632  plane waves:     200
 k-point 194 :   0.4737 0.3158 0.2632  plane waves:     203
 k-point 195 :   0.3684 0.3684 0.2632  plane waves:     201
 k-point 196 :   0.4211 0.3684 0.2632  plane waves:     200
 k-point 197 :   0.4737 0.3684 0.2632  plane waves:     200
 k-point 198 :   0.4211 0.4211 0.2632  plane waves:     199
 k-point 199 :   0.4737 0.4211 0.2632  plane waves:     202
 k-point 200 :   0.4737 0.4737 0.2632  plane waves:     204
 k-point 201 :   0.3158 0.3158 0.3158  plane waves:     205
 k-point 202 :   0.3684 0.3158 0.3158  plane waves:     203
 k-point 203 :   0.4211 0.3158 0.3158  plane waves:     199
 k-point 204 :   0.4737 0.3158 0.3158  plane waves:     199
 k-point 205 :   0.3684 0.3684 0.3158  plane waves:     201
 k-point 206 :   0.4211 0.3684 0.3158  plane waves:     198
 k-point 207 :   0.4737 0.3684 0.3158  plane waves:     197
 k-point 208 :   0.4211 0.4211 0.3158  plane waves:     196
 k-point 209 :   0.4737 0.4211 0.3158  plane waves:     196
 k-point 210 :   0.4737 0.4737 0.3158  plane waves:     196
 k-point 211 :   0.3684 0.3684 0.3684  plane waves:     193
 k-point 212 :   0.4211 0.3684 0.3684  plane waves:     192
 k-point 213 :   0.4737 0.3684 0.3684  plane waves:     192
 k-point 214 :   0.4211 0.4211 0.3684  plane waves:     194
 k-point 215 :   0.4737 0.4211 0.3684  plane waves:     196
 k-point 216 :   0.4737 0.4737 0.3684  plane waves:     200
 k-point 217 :   0.4211 0.4211 0.4211  plane waves:     199
 k-point 218 :   0.4737 0.4211 0.4211  plane waves:     200
 k-point 219 :   0.4737 0.4737 0.4211  plane waves:     207
 k-point 220 :   0.4737 0.4737 0.4737  plane waves:     208

 maximum and minimum number of plane-waves per node :       213      192

 maximum number of plane-waves:       213
 maximum index in each direction: 
   IXMAX=    3   IYMAX=    3   IZMAX=    3
   IXMIN=   -4   IYMIN=   -4   IZMIN=   -4


 serial   3D FFT for wavefunctions
 parallel 3D FFT for charge:
    minimum data exchange during FFTs selected (reduces bandwidth)


 total amount of memory used by VASP MPI-rank0    39369. kBytes
=======================================================================

   base      :      30000. kBytes
   nonl-proj :       7103. kBytes
   fftplans  :         75. kBytes
   grid      :        246. kBytes
   one-center:         31. kBytes
   wavefun   :       1914. kBytes
 
     INWAV:  cpu time      0.0000: real time      0.0000
 Broyden mixing: mesh for mixing (old mesh)
   NGX =  7   NGY =  7   NGZ =  7
  (NGX  = 28   NGY  = 28   NGZ  = 28)
  gives a total of    343 points

 initial charge density was supplied:
 charge density of overlapping atoms calculated
 number of electron      12.0000000 magnetization 
 keeping initial charge density in first step


--------------------------------------------------------------------------------------------------------


 Maximum index for augmentation-charges          373 (set IRDMAX)


--------------------------------------------------------------------------------------------------------


 First call to EWALD:  gamma=   0.560
 Maximum number of real-space cells 3x 3x 3
 Maximum number of reciprocal cells 3x 3x 3

    FEWALD:  cpu time      0.0010: real time      0.0010


--------------------------------------- Ionic step        1  -------------------------------------------




--------------------------------------- Iteration      1(   1)  ---------------------------------------


    POTLOK:  cpu time      0.0026: real time      0.0026
    SETDIJ:  cpu time      0.0024: real time      0.0024
     EDDAV:  cpu time      3.8449: real time      3.8515
       DOS:  cpu time      0.0015: real time      0.0015
    --------------------------------------------
      LOOP:  cpu time      3.8515: real time      3.8632

 eigenvalue-minimisations  : 15344
 total energy-change (2. order) :-0.4154285E+01  (-0.2862300E+03)
 number of electron      12.0000000 magnetization 
 augmentation part       12.0000000 magnetization 

 Free energy of the ion-electron system (eV)
  ---------------------------------------------------
  alpha Z        PSCENC =        86.38741185
  Ewald energy   TEWEN  =      -595.57395580
  -Hartree energ DENC   =       -21.63827264
  -exchange      EXHF   =         0.00000000
  -V(xc)+E(xc)   XCENC  =      -122.01732789
  PAW double counting   =       531.16611616     -388.83377293
  entropy T*S    EENTRO =         0.00017824
  eigenvalues    EBANDS =        71.52281449
  atomic energy  EATOM  =       434.83252350
  Solvation  Ediel_sol  =         0.00000000
  ---------------------------------------------------
  free energy    TOTEN  =        -4.15428503 eV

  energy without entropy =       -4.15446327  energy(sigma->0) =       -4.15434444


--------------------------------------------------------------------------------------------------------




--------------------------------------- Iteration      1(   2)  ---------------------------------------


[...]
     31      42.3673      0.00000
     32      42.3673      0.00000

 k-point   212 :       0.4211    0.3684    0.3684
  band No.  band energies     occupation 
      1       2.9482      2.00000
      2       3.4062      2.00000
      3       3.6670      2.00000
      4       4.1990      2.00000
      5       4.4944      2.00000
      6       4.6944      2.00000
      7       8.7648     -0.00000
      8       8.7697     -0.00000
      9       8.8767     -0.00000
     10       8.9198     -0.00000
     11      14.4665      0.00000
     12      16.2239      0.00000
     13      16.9082      0.00000
     14      17.7737      0.00000
     15      18.2965      0.00000
     16      19.8322      0.00000
     17      20.4437      0.00000
     18      22.1983      0.00000
     19      29.6663      0.00000
     20      30.3607      0.00000
     21      31.1383      0.00000
     22      33.6084      0.00000
     23      33.6335      0.00000
     24      34.3938      0.00000
     25      35.7098      0.00000
     26      36.0605      0.00000
     27      37.7579      0.00000
     28      38.1862      0.00000
     29      40.2496      0.00000
     30      40.2982      0.00000
     31      41.6704      0.00000
     32      41.8295      0.00000

 k-point   213 :       0.4737    0.3684    0.3684
  band No.  band energies     occupation 
      1       3.0518      2.00000
      2       3.2108      2.00000
      3       3.8075      2.00000
      4       3.9796      2.00000
      5       4.7256      2.00000
      6       4.7995      2.00000
      7       8.7545     -0.00000
      8       8.7641     -0.00000
      9       8.9333     -0.00000
     10       8.9436     -0.00000
     11      15.0070      0.00000
     12      15.5738      0.00000
     13      17.1845      0.00000
     14      17.6539      0.00000
     15      18.5094      0.00000
     16      19.2114      0.00000
     17      20.8581      0.00000
     18      21.4681      0.00000
     19      30.1528      0.00000
     20      30.3790      0.00000
     21      32.2272      0.00000
     22      33.3284      0.00000
     23      33.6345      0.00000
     24      33.6749      0.00000
     25      35.9519      0.00000
     26      36.6697      0.00000
     27      36.6914      0.00000
     28      37.4274      0.00000
     29      40.5106      0.00000
     30      40.6947      0.00000
     31      41.0086      0.00000
     32      41.2194      0.00000

 k-point   214 :       0.4211    0.4211    0.3684
  band No.  band energies     occupation 
      1       3.0503      2.00000
      2       3.5414      2.00000
      3       3.5710      2.00000
      4       4.1321      2.00000
      5       4.6098      2.00000
      6       4.7252      2.00000
      7       8.8207     -0.00000
      8       8.8283     -0.00000
      9       8.9042     -0.00000
     10       8.9299     -0.00000
     11      15.0051      0.00000
     12      16.4571      0.00000
     13      16.6684      0.00000
     14      17.7971      0.00000
     15      17.9007      0.00000
     16      19.7199      0.00000
     17      19.9603      0.00000
     18      21.4939      0.00000
     19      30.2819      0.00000
     20      30.9198      0.00000
     21      31.6567      0.00000
     22      33.6186      0.00000
     23      33.6328      0.00000
     24      34.5485      0.00000
     25      35.3263      0.00000
     26      36.0088      0.00000
     27      37.3620      0.00000
     28      37.6417      0.00000
     29      39.5654      0.00000
     30      39.9738      0.00000
     31      40.8499      0.00000
     32      40.9995      0.00000

 k-point   215 :       0.4737    0.4211    0.3684
  band No.  band energies     occupation 
      1       3.1850      2.00000
      2       3.3595      2.00000
      3       3.7226      2.00000
      4       3.9196      2.00000
      5       4.7703      2.00000
      6       4.8122      2.00000
      7       8.8347     -0.00000
      8       8.8359     -0.00000
      9       8.9420     -0.00000
     10       8.9491     -0.00000
     11      15.4974      0.00000
     12      15.9960      0.00000
     13      16.8861      0.00000
     14      17.2804      0.00000
     15      18.4922      0.00000
     16      19.1593      0.00000
     17      20.2304      0.00000
     18      20.8041      0.00000
     19      30.8040      0.00000
     20      31.0385      0.00000
     21      32.6409      0.00000
     22      33.5967      0.00000
     23      33.6310      0.00000
     24      33.7901      0.00000
     25      35.5085      0.00000
     26      36.2974      0.00000
     27      36.4923      0.00000
     28      37.1133      0.00000
     29      39.6364      0.00000
     30      40.1212      0.00000
     31      40.1284      0.00000
     32      40.4648      0.00000

 k-point   216 :       0.4737    0.4737    0.3684
  band No.  band energies     occupation 
      1       3.3413      2.00000
      2       3.5290      2.00000
      3       3.5300      2.00000
      4       3.7257      2.00000
      5       4.8776      2.00000
      6       4.8921      2.00000
      7       8.8595     -0.00000
      8       8.8617     -0.00000
      9       8.9523     -0.00000
     10       8.9563     -0.00000
     11      15.9022      0.00000
     12      16.1838      0.00000
     13      16.6243      0.00000
     14      16.8671      0.00000
     15      18.8872      0.00000
     16      19.3277      0.00000
     17      19.7527      0.00000
     18      20.1570      0.00000
     19      31.3220      0.00000
     20      31.4327      0.00000
     21      33.3518      0.00000
     22      33.6183      0.00000
     23      33.6213      0.00000
     24      34.1463      0.00000
     25      34.6975      0.00000
     26      35.3494      0.00000
     27      36.7138      0.00000
     28      36.9664      0.00000
     29      39.3191      0.00000
     30      39.5326      0.00000
     31      39.9467      0.00000
     32      40.0619      0.00000

 k-point   217 :       0.4211    0.4211    0.4211
  band No.  band energies     occupation 
      1       3.1941      2.00000
      2       3.6761      2.00000
      3       3.6761      2.00000
      4       4.3855      2.00000
      5       4.3855      2.00000
      6       4.4928      2.00000
      7       8.8982     -0.00000
      8       8.8982     -0.00000
      9       8.9093     -0.00000
     10       8.9093     -0.00000
     11      15.5453      0.00000
     12      16.5982      0.00000
     13      17.2746      0.00000
     14      17.2746      0.00000
     15      17.5435      0.00000
     16      19.4436      0.00000
     17      19.4436      0.00000
     18      20.8400      0.00000
     19      30.9244      0.00000
     20      31.8216      0.00000
     21      31.8216      0.00000
     22      33.6214      0.00000
     23      33.6263      0.00000
     24      35.2356      0.00000
     25      35.2356      0.00000
     26      35.3632      0.00000
     27      37.5708      0.00000
     28      37.5708      0.00000
     29      37.9260      0.00000
     30      39.3481      0.00000
     31      39.9507      0.00000
     32      39.9507      0.00000

 k-point   218 :       0.4737    0.4211    0.4211
  band No.  band energies     occupation 
      1       3.3613      2.00000
      2       3.5395      2.00000
      3       3.8539      2.00000
      4       4.0951      2.00000
      5       4.5320      2.00000
      6       4.5411      2.00000
      7       8.9080     -0.00000
      8       8.9143     -0.00000
      9       8.9491     -0.00000
     10       8.9548     -0.00000
     11      16.0028      0.00000
     12      16.4193      0.00000
     13      17.0115      0.00000
     14      17.2113      0.00000
     15      18.0630      0.00000
     16      18.7897      0.00000
     17      19.6652      0.00000
     18      20.1957      0.00000
     19      31.5060      0.00000
     20      31.8105      0.00000
     21      32.9478      0.00000
     22      33.6171      0.00000
     23      33.6315      0.00000
     24      34.1670      0.00000
     25      35.5386      0.00000
     26      36.1598      0.00000
     27      36.4054      0.00000
     28      36.9816      0.00000
     29      38.2694      0.00000
     30      39.0237      0.00000
     31      39.2519      0.00000
     32      39.4634      0.00000

 k-point   219 :       0.4737    0.4737    0.4211
  band No.  band energies     occupation 
      1       3.5347      2.00000
      2       3.6777      2.00000
      3       3.8135      2.00000
      4       3.9835      2.00000
      5       4.4957      2.00000
      6       4.5074      2.00000
      7       8.9210     -0.00000
      8       8.9339     -0.00000
      9       8.9594     -0.00000
     10       8.9596     -0.00000
     11      16.3454      0.00000
     12      16.5048      0.00000
     13      17.0242      0.00000
     14      17.0725      0.00000
     15      18.2685      0.00000
     16      18.7278      0.00000
     17      19.2364      0.00000
     18      19.5853      0.00000
     19      32.1405      0.00000
     20      32.3263      0.00000
     21      33.5403      0.00000
     22      33.6118      0.00000
     23      33.6146      0.00000
     24      34.5003      0.00000
     25      34.8273      0.00000
     26      35.5944      0.00000
     27      36.5771      0.00000
     28      37.1712      0.00000
     29      37.6155      0.00000
     30      38.2122      0.00000
     31      38.8400      0.00000
     32      38.9053      0.00000

 k-point   220 :       0.4737    0.4737    0.4737
  band No.  band energies     occupation 
      1       3.7340      2.00000
      2       3.8895      2.00000
      3       3.8895      2.00000
      4       4.1618      2.00000
      5       4.1618      2.00000
      6       4.2729      2.00000
      7       8.9644     -0.00000
      8       8.9644     -0.00000
      9       8.9645     -0.00000
     10       8.9645     -0.00000
     11      16.4306      0.00000
     12      16.4560      0.00000
     13      17.5188      0.00000
     14      17.8354      0.00000
     15      17.8354      0.00000
     16      18.5847      0.00000
     17      18.5847      0.00000
     18      18.9931      0.00000
     19      33.0175      0.00000
     20      33.4746      0.00000
     21      33.4746      0.00000
     22      33.6122      0.00000
     23      33.6124      0.00000
     24      34.6335      0.00000
     25      34.6335      0.00000
     26      35.3524      0.00000
     27      36.5255      0.00000
     28      37.0763      0.00000
     29      37.0763      0.00000
     30      37.8436      0.00000
     31      37.8436      0.00000
     32      38.0195      0.00000


--------------------------------------------------------------------------------------------------------


 soft charge-density along one line, spin component           1
         0         1         2         3         4         5         6         7         8         9
 total charge-density along one line
 
 pseudopotential strength for first ion, spin component:           1
 -7.336   0.000  -0.000  -0.000   0.000  -7.559   0.000  -0.000
  0.000  -7.336   0.000  -0.000   0.000   0.000  -7.559   0.000
 -0.000   0.000  -7.354   0.000   0.000  -0.000   0.000  -7.577
 -0.000  -0.000   0.000  -7.336   0.000  -0.000  -0.000   0.000
  0.000   0.000   0.000   0.000  -7.354   0.000   0.000   0.000
 -7.559   0.000  -0.000  -0.000   0.000  -7.772   0.000  -0.000
  0.000  -7.559   0.000  -0.000   0.000   0.000  -7.772   0.000
 -0.000   0.000  -7.577   0.000   0.000  -0.000   0.000  -7.790
 -0.000  -0.000   0.000  -7.559   0.000  -0.000  -0.000   0.000
  0.000   0.000   0.000   0.000  -7.577   0.000   0.000   0.000
  0.000   0.000   0.000  -0.000  -0.000   0.000   0.000   0.000
  0.000   0.000   0.000  -0.000   0.000   0.000   0.000   0.000
  0.000   0.000  -0.000   0.000  -0.000  -0.000   0.000  -0.000
  0.000   0.000   0.000  -0.000   0.000   0.000   0.000   0.000
  0.000   0.000   0.000   0.000  -0.000   0.000   0.000  -0.000
  0.000   0.000  -0.000   0.000  -0.000   0.000   0.000  -0.000
  0.000   0.000   0.000   0.000   0.000   0.000   0.000   0.000
  0.000   0.000   0.000   0.000  -0.000   0.000   0.000   0.000
 total augmentation occupancy for first ion, spin component:           1
  1.187   0.000   0.000   0.000  -0.000  -1.780  -0.000   0.000   0.000  -0.000   0.000  -0.000   0.000   0.000   0.000   0.000
  0.000   1.187  -0.000   0.000   0.000   0.000  -1.780   0.000  -0.000   0.000   0.000   0.000   0.000  -0.000   0.000   0.000
  0.000   0.000   1.670  -0.000   0.000   0.000  -0.000  -2.460   0.000  -0.000  -0.000  -0.000   0.000   0.000   0.000   0.000
  0.000   0.000  -0.000   1.187   0.000  -0.000   0.000  -0.000  -1.780   0.000  -0.000  -0.000   0.000   0.000   0.000  -0.000
 -0.000  -0.000  -0.000  -0.000   1.670  -0.000  -0.000   0.000   0.000  -2.460   0.000  -0.000  -0.000   0.000   0.000   0.000
 -1.780   0.000  -0.000  -0.000  -0.000   3.384  -0.000  -0.000   0.000  -0.000  -0.000  -0.000   0.000  -0.000   0.000   0.000
 -0.000  -1.780   0.000   0.000  -0.000  -0.000   3.384  -0.000  -0.000   0.000  -0.000  -0.000   0.000  -0.000  -0.000  -0.000
  0.000   0.000  -2.460  -0.000  -0.000  -0.000  -0.000   3.921   0.000  -0.000  -0.000  -0.000   0.000   0.000   0.000   0.000
  0.000  -0.000   0.000  -1.780   0.000   0.000  -0.000  -0.000   3.384   0.000  -0.000   0.000  -0.000   0.000   0.000   0.000
 -0.000  -0.000   0.000   0.000  -2.460  -0.000   0.000   0.000   0.000   3.921  -0.000  -0.000   0.000   0.000   0.000   0.000
  0.000   0.000  -0.000  -0.000   0.000  -0.000  -0.000  -0.000  -0.000  -0.000   1.982  -0.091  -0.000  -0.000  -0.000  -0.000
 -0.000   0.000  -0.000  -0.000  -0.000  -0.000  -0.000  -0.000   0.000  -0.000  -0.091   0.005   0.000   0.000   0.000  -0.000
  0.000  -0.000   0.000   0.000  -0.000   0.000   0.000  -0.000   0.000   0.000  -0.000   0.000   0.334  -0.000  -0.000  -0.037
  0.000  -0.000   0.000   0.000   0.000   0.000   0.000   0.000  -0.000   0.000  -0.000   0.000  -0.000   0.334   0.000   0.000
  0.000   0.000   0.000  -0.000  -0.000   0.000   0.000   0.000   0.000   0.000  -0.000   0.000  -0.000   0.000   0.334  -0.000
  0.000   0.000  -0.000  -0.000   0.000  -0.000  -0.000   0.000   0.000   0.000   0.000  -0.000  -0.037   0.000  -0.000   0.004
  0.000  -0.000   0.000   0.000   0.000   0.000   0.000   0.000  -0.000   0.000   0.000   0.000  -0.000  -0.037  -0.000   0.000
  0.000  -0.000   0.000   0.000   0.000   0.000   0.000   0.000   0.000   0.000   0.000   0.000  -0.000   0.000  -0.037   0.000


------------------------ aborting loop because EDIFF is reached ----------------------------------------


    CHARGE:  cpu time      0.0100: real time      0.0101
    FORLOC:  cpu time      0.0001: real time      0.0001
    FORNL :  cpu time      0.0523: real time      0.0524
    STRESS:  cpu time      0.7720: real time      0.7720
    FORCOR:  cpu time      0.0021: real time      0.0021
    FORHAR:  cpu time      0.0005: real time      0.0005
    MIXING:  cpu time      0.0001: real time      0.0001
    OFIELD:  cpu time      0.0000: real time      0.0000

  FORCE on cell =-STRESS in cart. coord.  units (eV):
  Direction    XX          YY          ZZ          XY          YZ          ZX
  --------------------------------------------------------------------------------------
  Alpha Z    86.38741    86.38741    86.38741
  Ewald    -198.52464  -198.52464  -198.52464    -0.00000    -0.00000    -0.00000
  Hartree     3.69795     3.69795     3.69795    -0.00000    -0.00000    -0.00000
  E(xc)     -56.04295   -56.04295   -56.04295     0.00000    -0.00000     0.00000
  Local      28.97417    28.97417    28.97417     0.00000    -0.00000     0.00000
  n-local   -40.67249   -36.40217   -33.55475     2.48312    -1.10419     0.17040
  augment    18.26277    18.26277    18.26277    -0.00000    -0.00000    -0.00000
  Kinetic   141.37953   150.70144   162.77770     7.09565    -2.73829     1.60724
  Fock        0.00000     0.00000     0.00000     0.00000     0.00000     0.00000
  -------------------------------------------------------------------------------------
  Total      -2.50220    -2.50220    -2.50220     0.00000     0.00000    -0.00000
  in kB    -126.13476  -126.13476  -126.13476     0.00000     0.00000    -0.00000
  external pressure =     -126.13 kB  Pullay stress =        0.00 kB


 VOLUME and BASIS-vectors are now :
 -----------------------------------------------------------------------------
  energy-cutoff  :      200.00
  volume of cell :       31.78
      direct lattice vectors                 reciprocal lattice vectors
     3.167617940  0.000000000  0.000000000     0.315694638  0.000000000  0.000000000
     0.000000000  3.167617940  0.000000000     0.000000000  0.315694638  0.000000000
     0.000000000  0.000000000  3.167617940     0.000000000  0.000000000  0.315694638

  length of vectors
     3.167617940  3.167617940  3.167617940     0.315694638  0.315694638  0.315694638


 FORCES acting on ions
    electron-ion (+dipol)            ewald-force                    non-local-force                 convergence-correction
 -----------------------------------------------------------------------------------------------
   0.388E-14 0.235E-14 -.192E-14   0.499E-15 -.775E-15 -.444E-15   0.121E-26 -.187E-25 -.198E-26   -.545E-15 0.979E-16 -.800E-15
   0.180E-13 -.829E-13 0.133E-13   -.299E-15 0.521E-15 0.109E-14   -.221E-25 -.314E-25 -.459E-26   -.400E-15 -.977E-15 -.588E-15
 -----------------------------------------------------------------------------------------------
   0.219E-13 -.806E-13 0.114E-13   0.199E-15 -.254E-15 0.644E-15   -.209E-25 -.501E-25 -.657E-26   -.945E-15 -.879E-15 -.139E-14
 
 
 POSITION                                       TOTAL-FORCE (eV/Angst)
 -----------------------------------------------------------------------------------
      0.00000      0.00000      0.00000        -0.000000     -0.000000     -0.000000
      1.58381      1.58381      1.58381         0.000000      0.000000      0.000000
 -----------------------------------------------------------------------------------
    total drift:                                0.000000     -0.000000      0.000000


--------------------------------------------------------------------------------------------------------



  FREE ENERGIE OF THE ION-ELECTRON SYSTEM (eV)
  ---------------------------------------------------
  free  energy   TOTEN  =       -21.86193406 eV

  energy  without entropy=      -21.86187009  energy(sigma->0) =      -21.86191274
 


--------------------------------------------------------------------------------------------------------


    POTLOK:  cpu time      0.0046: real time      0.0046


--------------------------------------------------------------------------------------------------------


     LOOP+:  cpu time     49.0795: real time     49.1634
    4ORBIT:  cpu time      0.0000: real time      0.0000

 total amount of memory used by VASP MPI-rank0    39369. kBytes
=======================================================================

   base      :      30000. kBytes
   nonl-proj :       7103. kBytes
   fftplans  :         75. kBytes
   grid      :        246. kBytes
   one-center:         31. kBytes
   wavefun   :       1914. kBytes
 
  
  
 General timing and accounting informations for this job:
 ========================================================
  
                  Total CPU time used (sec):       52.730
                            User time (sec):       18.531
                          System time (sec):       34.198
                         Elapsed time (sec):       53.260
  
                   Maximum memory used (kb):      127728.
                   Average memory used (kb):          N/A
  
                          Minor page faults:       109903
                          Major page faults:          670
                 Voluntary context switches:         1384
